2
energy: -2188751.789000 kJ/mol; low freq (cm^-1): 313.58
Br      1.220246000     0.508509000     0.000000000
Br      3.474254000     1.041191000     0.000000000