2
energy: -2416265.906000 kJ/mol; low freq (cm^-1): 535.04
Cl     -0.823203000     0.083958000     0.000000000
Cl      1.200733000     0.064412000     0.000000000