2
energy: -1552844.944000 kJ/mol; low freq (cm^-1): 212.09
I      -2.348392000     0.701406000     0.000000000
I       0.345842000     0.930734000     0.000000000