20
energy: -6440834318.564677 kJ/mol; low freq (cm^-1) (cm^-1): 4.47, 20.48, 20.64
C       0.647013000     0.058997000    -0.866284000
N      -0.248027000    -0.656189000    -0.736622000
C      -1.356366000    -1.536600000    -0.575175000
C       1.100760000     2.611247000    -2.076055000
N       0.548870000     3.432864000    -2.660590000
C      -0.050376000     4.501378000    -3.386062000
C       3.405472000     0.087107000    -0.114584000
N       4.184467000    -0.553173000     0.437271000
C       5.212509000    -1.278209000     1.104054000
Pt      2.156602000     1.272175000    -1.080973000
Br      4.055833000     2.806233000    -1.345232000
H      -1.633904000    -1.942657000    -1.545703000
H      -2.192473000    -0.983071000    -0.152880000
H      -1.074174000    -2.345178000     0.095609000
H      -0.837924000     4.944966000    -2.780752000
H      -0.468798000     4.113027000    -4.312041000
H       0.713364000     5.244553000    -3.605595000
H       5.331878000    -2.248162000     0.626249000
H       4.935085000    -1.410678000     2.147574000
H       6.139240000    -0.712458000     1.034498000