20
energy: -5605988346.157521 kJ/mol; low freq (cm^-1) (cm^-1): 3.81, 23.56, 24.92
C       0.807978000    -0.069833000    -1.207477000
N       0.074834000    -0.928140000    -1.442516000
C      -0.833780000    -1.986569000    -1.731105000
C       1.006624000     2.727253000    -1.815403000
N       0.434156000     3.542610000    -2.390441000
C      -0.193553000     4.624494000    -3.069884000
C       3.259003000     0.247525000     0.251413000
N       3.995753000    -0.377252000     0.875874000
C       4.970575000    -1.056013000     1.660038000
Pt      2.051351000     1.392120000    -0.807411000
I       3.721910000     3.363253000    -0.265762000
H      -1.611206000    -1.616949000    -2.396236000
H      -1.279442000    -2.337129000    -0.802493000
H      -0.293614000    -2.799325000    -2.212127000
H      -1.180125000     4.789860000    -2.642290000
H      -0.284733000     4.378365000    -4.125601000
H       0.418682000     5.515686000    -2.947351000
H       5.392460000    -1.871874000     1.077089000
H       4.496449000    -1.449000000     2.556816000
H       5.752669000    -0.349997000     1.931966000