20
energy: -6739562038.423740 kJ/mol; low freq (cm^-1) (cm^-1): 5.51, 14.33, 15.62
C       0.663484000     0.073975000    -0.869967000
N      -0.234697000    -0.636750000    -0.737567000
C      -1.345768000    -1.512785000    -0.570939000
C       1.118936000     2.600601000    -2.107857000
N       0.573417000     3.420831000    -2.699269000
C      -0.030064000     4.483630000    -3.430345000
C       3.410310000     0.092018000    -0.100900000
N       4.190052000    -0.533157000     0.465834000
C       5.215812000    -1.242942000     1.152821000
Pt      2.174276000     1.271681000    -1.094138000
Cl      3.981271000     2.701010000    -1.362280000
H      -1.953543000    -1.493084000    -1.473087000
H      -1.936947000    -1.181427000     0.280359000
H      -0.980325000    -2.522417000    -0.396059000
H      -0.840858000     4.905415000    -2.840335000
H      -0.417644000     4.094593000    -4.369358000
H       0.723467000     5.243830000    -3.624930000
H       5.397734000    -2.186636000     0.643250000
H       4.896083000    -1.428843000     2.175820000
H       6.119700000    -0.637478000     1.149146000