29
energy: -8374037382.920762 kJ/mol; low freq (cm^-1) (cm^-1): 13.81, 30.61, 35.51
C      -0.253676000     0.203765000     0.277910000
N      -1.217826000     0.116012000     1.226451000
C      -1.450690000     1.333566000     1.844103000
C      -0.598046000     2.210925000     1.267244000
N       0.114177000     1.497282000     0.326983000
C       1.332275000    -2.612557000    -2.234964000
N       1.373258000    -3.964467000    -2.146029000
C       2.053672000    -4.534123000    -3.209196000
C       2.445998000    -3.503785000    -3.992863000
N       1.992312000    -2.355925000    -3.378993000
C      -0.387556000    -2.660898000     0.071820000
N      -1.445787000    -3.422394000    -0.296601000
C      -1.812569000    -4.322657000     0.694779000
C      -0.954218000    -4.126068000     1.718497000
N      -0.099045000    -3.108540000     1.317247000
Pt      0.510537000    -1.235325000    -0.961424000
Br      1.633739000     0.580861000    -2.285747000
H      -1.720165000    -0.729532000     1.426768000
H      -2.184344000     1.464393000     2.616881000
H      -0.441949000     3.258678000     1.442564000
H       0.807398000     1.859223000    -0.316856000
H       0.980255000    -4.479661000    -1.379528000
H       2.196269000    -5.593406000    -3.309759000
H       2.997413000    -3.491138000    -4.914083000
H       2.144771000    -1.400723000    -3.680500000
H      -1.909306000    -3.306024000    -1.182255000
H      -2.634162000    -5.005340000     0.584983000
H      -0.875198000    -4.608794000     2.674453000
H       0.668879000    -2.743390000     1.855424000