29
energy: -8672794401.984064 kJ/mol; low freq (cm^-1) (cm^-1): 4.58, 37.39, 38.8
C      -0.429745000     0.202956000     0.141378000
N      -1.116950000     0.136900000     1.306729000
C      -1.487762000     1.392279000     1.759763000
C      -1.015257000     2.271028000     0.846069000
N      -0.379974000     1.521114000    -0.120374000
C       1.210963000    -2.649128000    -2.283994000
N       1.285189000    -3.998937000    -2.199548000
C       1.944953000    -4.549116000    -3.286168000
C       2.293913000    -3.506883000    -4.075016000
N       1.836079000    -2.371341000    -3.441826000
C      -0.223986000    -2.672684000     0.218572000
N      -1.378475000    -3.381102000     0.196558000
C      -1.453843000    -4.290610000     1.243313000
C      -0.309780000    -4.151306000     1.946667000
N       0.421914000    -3.161032000     1.304568000
Pt      0.374724000    -1.269249000    -1.027594000
Cl      1.106174000     0.428073000    -2.527764000
H      -1.329059000    -0.724401000     1.776506000
H      -2.040400000     1.544725000     2.667423000
H      -1.077126000     3.342125000     0.804042000
H       0.086235000     1.857066000    -0.954926000
H       0.905750000    -4.527698000    -1.435370000
H       2.103476000    -5.604939000    -3.398463000
H       2.817419000    -3.479584000    -5.012052000
H       1.926897000    -1.411578000    -3.753697000
H      -2.083247000    -3.238993000    -0.507572000
H      -2.296498000    -4.939979000     1.389519000
H       0.042570000    -4.656063000     2.826551000
H       1.328849000    -2.827638000     1.585706000