29
energy: -7539156177.225158 kJ/mol; low freq (cm^-1) (cm^-1): 27.52, 28.89, 37.48
C      -0.287888000     0.215781000     0.235889000
N      -0.758148000     0.132319000     1.503977000
C      -1.274029000     1.338717000     1.948810000
C      -1.137021000     2.203239000     0.918172000
N      -0.544783000     1.493320000    -0.106630000
C       1.526782000    -2.626504000    -2.077117000
N       1.052285000    -3.823102000    -2.500909000
C       1.951397000    -4.476752000    -3.327576000
C       3.032817000    -3.669188000    -3.411224000
N       2.749880000    -2.561792000    -2.638033000
C      -0.433009000    -2.649860000     0.028018000
N      -1.772948000    -2.732198000     0.207757000
C      -2.138419000    -3.872022000     0.908400000
C      -0.990697000    -4.528243000     1.184779000
N       0.031112000    -3.767818000     0.635962000
Pt      0.608323000    -1.228695000    -0.899911000
I       2.028456000     0.686815000    -2.133017000
H      -0.675511000    -0.696800000     2.064438000
H      -1.677398000     1.472361000     2.934724000
H      -1.403153000     3.239600000     0.828922000
H      -0.224525000     1.871306000    -0.987892000
H       0.129024000    -4.153194000    -2.284224000
H       1.745190000    -5.430754000    -3.774730000
H       3.957875000    -3.784821000    -3.943891000
H       3.315591000    -1.727279000    -2.558197000
H      -2.408438000    -2.043595000    -0.157925000
H      -3.159474000    -4.110376000     1.140091000
H      -0.813606000    -5.446142000     1.713127000
H       1.012312000    -3.982322000     0.691212000