14
energy: -11090609903.230524 kJ/mol; low freq (cm^-1) (cm^-1): 31.57, 77.41, 107.8
P       0.310137000    -0.258494000    -0.275827000
P       3.281916000    -1.721801000     0.623928000
P       1.909351000     0.517472000    -3.173757000
Pt      2.368446000    -0.566125000    -1.167936000
Cl      4.488224000    -0.863575000    -2.110005000
H      -0.096806000     1.076353000    -0.092703000
H      -0.776997000    -0.770802000    -1.008111000
H       0.048809000    -0.793512000     0.998171000
H       3.739666000    -3.003704000     0.284067000
H       2.511910000    -1.975444000     1.775037000
H       4.427135000    -1.112915000     1.158265000
H       0.645254000     1.086848000    -3.420164000
H       2.085685000    -0.304320000    -4.296979000
H       2.773040000     1.591989000    -3.432823000