14
energy: -3792437.625000 kJ/mol; low freq (cm^-1): 26.54, 61.78, 94.9
P       0.149923000     0.970032000    -0.437371000
P       3.968129000    -1.631724000    -0.292894000
P       1.790302000    -0.901150000    -2.774575000
Pt      2.033568000    -0.374520000    -0.568250000
I       2.349496000     0.225022000     1.999468000
H       0.396120000     2.299716000    -0.064612000
H      -0.642195000     1.138234000    -1.591297000
H      -0.804099000     0.559546000     0.505376000
H       4.484651000    -2.349202000    -1.391379000
H       5.091207000    -0.898831000     0.117951000
H       3.880831000    -2.635363000     0.682848000
H       1.789418000    -2.269639000    -3.103641000
H       2.787972000    -0.423701000    -3.645574000
H       0.629680000    -0.469424000    -3.442050000