14
energy: -4110412.268000 kJ/mol; low freq (cm^-1): 30.7, 68.49, 101.04
P      -0.279152000     0.240961000    -0.778820000
P       3.593936000    -2.274070000    -0.720212000
P       2.907845000     0.932064000    -1.711242000
Pt      1.781895000    -0.832294000    -0.830957000
Br      0.533609000    -2.732212000     0.146771000
H      -0.398225000     1.575125000    -1.216027000
H      -1.267112000    -0.400347000    -1.540803000
H      -0.859161000     0.301104000     0.496739000
H       4.864313000    -1.831789000    -1.138739000
H       3.862830000    -2.762366000     0.566900000
H       3.432949000    -3.448676000    -1.470210000
H       2.469517000     1.398715000    -2.964646000
H       4.287479000     0.793382000    -1.946727000
H       2.885274000     2.123402000    -0.962029000