41
energy: -5039336.075000 kJ/mol; low freq (cm^-1): 21.49, 24.28, 29.27
C       0.458940000    -0.496463000    -0.106622000
C       1.309951000    -0.316935000    -1.364751000
C       2.551218000    -1.210399000    -1.359160000
P       0.292712000    -0.657387000    -2.868074000
C       0.337525000    -3.139885000    -6.761756000
C       0.972400000    -4.232256000    -5.898462000
C       2.245816000    -4.814235000    -6.511712000
P       1.298185000    -3.565239000    -4.212058000
C      -4.020466000    -1.658714000    -4.216269000
C      -4.080328000    -2.487473000    -2.931329000
C      -5.311650000    -2.181652000    -2.078984000
P      -2.531239000    -2.232729000    -1.966482000
Pt     -0.544594000    -2.745939000    -3.057294000
Br     -1.437237000    -5.065105000    -3.207357000
H      -0.420006000     0.148672000    -0.109019000
H       1.050333000    -0.244621000     0.773273000
H       0.132440000    -1.531946000    -0.002239000
H       1.613001000     0.728874000    -1.455030000
H       2.273334000    -2.262449000    -1.283423000
H       3.171270000    -0.968440000    -0.496380000
H       3.160973000    -1.073131000    -2.252480000
H       1.113679000    -0.238082000    -3.933924000
H      -0.663299000     0.377923000    -2.870700000
H       0.108186000    -3.542788000    -7.747797000
H       1.016665000    -2.296482000    -6.901015000
H      -0.589683000    -2.770439000    -6.324708000
H       0.242909000    -5.025555000    -5.728599000
H       2.013723000    -5.244185000    -7.486512000
H       2.673164000    -5.603207000    -5.893715000
H       3.004309000    -4.044447000    -6.661902000
H       2.367095000    -2.667504000    -4.421014000
H       1.961165000    -4.592005000    -3.517554000
H      -4.919125000    -1.836857000    -4.806103000
H      -3.158271000    -1.925877000    -4.826496000
H      -3.975692000    -0.589546000    -3.999932000
H      -4.056334000    -3.547954000    -3.186655000
H      -6.212293000    -2.388655000    -2.657723000
H      -5.347474000    -2.793680000    -1.178313000
H      -5.342014000    -1.131636000    -1.784095000
H      -2.701605000    -2.959602000    -0.775347000
H      -2.664681000    -0.913966000    -1.481287000