41
energy: -13529492821.056032 kJ/mol; low freq (cm^-1) (cm^-1): 28.36, 30.22, 34.74
C       0.340696000     0.460464000    -2.896738000
C       1.275295000    -0.339812000    -1.989778000
C       0.596080000    -0.764063000    -0.687232000
P       1.918627000    -1.821426000    -2.886368000
C      -1.693523000    -1.543954000    -7.610552000
C      -1.655509000    -2.114096000    -6.192623000
C      -2.395114000    -1.241114000    -5.178210000
P       0.083917000    -2.392233000    -5.647913000
C       3.195306000    -5.557109000    -1.942680000
C       1.776989000    -6.062467000    -1.670976000
C       1.322259000    -7.103075000    -2.693846000
P       0.613029000    -4.627361000    -1.614011000
Pt      0.423910000    -3.371292000    -3.562141000
Cl     -1.147690000    -4.977440000    -4.263225000
H       0.826434000     0.762695000    -3.824975000
H       0.019458000     1.365877000    -2.382345000
H      -0.550091000    -0.117144000    -3.141108000
H       2.162187000     0.256374000    -1.761804000
H      -0.280289000    -1.381512000    -0.887838000
H       0.262955000     0.120352000    -0.144684000
H       1.270379000    -1.317313000    -0.033139000
H       2.934678000    -2.302234000    -2.037659000
H       2.705432000    -1.267906000    -3.916346000
H      -2.731171000    -1.446780000    -7.931319000
H      -1.184069000    -2.188948000    -8.325853000
H      -1.239389000    -0.552891000    -7.655162000
H      -2.087286000    -3.115529000    -6.179250000
H      -3.436169000    -1.137798000    -5.483060000
H      -2.380917000    -1.682846000    -4.182510000
H      -1.966901000    -0.238775000    -5.127249000
H       0.720149000    -1.155154000    -5.883840000
H       0.663913000    -3.164894000    -6.670497000
H       3.526000000    -4.829657000    -1.200064000
H       3.262463000    -5.102498000    -2.932070000
H       3.891348000    -6.395064000    -1.915069000
H       1.730995000    -6.492901000    -0.667705000
H       2.000109000    -7.955988000    -2.656776000
H       1.337297000    -6.697476000    -3.704238000
H       0.313827000    -7.461500000    -2.494402000
H       1.020501000    -3.931689000    -0.458072000
H      -0.622117000    -5.150820000    -1.197677000