41
energy: -4721360.225000 kJ/mol; low freq (cm^-1): 24.34, 24.78, 28.77
C      -0.380482000    -0.840577000     0.408271000
C       0.679233000    -0.202131000    -0.491002000
C       1.976814000    -1.011191000    -0.522063000
P       0.016386000    -0.004774000    -2.204224000
C       3.066558000    -2.378929000    -6.547699000
C       1.637557000    -2.142863000    -6.059824000
C       1.046605000    -0.821428000    -6.556145000
P       1.551474000    -2.196186000    -4.218870000
C      -3.771773000    -0.437215000    -4.671095000
C      -4.051872000    -1.687185000    -3.834000000
C      -5.449003000    -1.690403000    -3.214342000
P      -2.754221000    -1.856045000    -2.535123000
Pt     -0.552535000    -1.922741000    -3.272419000
I      -1.191238000    -4.236837000    -4.432402000
H      -1.301571000    -0.257972000     0.436720000
H      -0.001429000    -0.908377000     1.427629000
H      -0.616549000    -1.851538000     0.073622000
H       0.889369000     0.812590000    -0.145074000
H       1.794422000    -2.025830000    -0.878461000
H       2.386586000    -1.082287000     0.485120000
H       2.734939000    -0.549397000    -1.154961000
H       0.984821000     0.788400000    -2.851671000
H      -1.019074000     0.940159000    -2.058821000
H       3.079595000    -2.387898000    -7.638003000
H       3.463255000    -3.333124000    -6.202559000
H       3.737852000    -1.585614000    -6.215454000
H       0.994863000    -2.965263000    -6.377590000
H       1.627859000     0.032772000    -6.203391000
H       0.014043000    -0.696206000    -6.231470000
H       1.062483000    -0.801697000    -7.645440000
H       2.190419000    -3.390043000    -3.842527000
H       2.530918000    -1.254521000    -3.834307000
H      -3.832099000     0.469645000    -4.066175000
H      -4.516697000    -0.354179000    -5.461913000
H      -2.787834000    -0.478501000    -5.137375000
H      -3.918418000    -2.573222000    -4.456485000
H      -6.196159000    -1.636737000    -4.006731000
H      -5.638550000    -2.596221000    -2.639399000
H      -5.597668000    -0.829479000    -2.560822000
H      -3.074327000    -0.813486000    -1.638019000
H      -3.128551000    -2.971476000    -1.766508000