32
energy: -4843648.796000 kJ/mol; low freq (cm^-1): 37.62, 40.98, 49.7
C       0.737414000    -1.390893000    -0.601732000
P       2.091808000    -0.603380000     0.329212000
C       1.748418000    -0.882651000     2.097031000
C       1.138143000     4.424884000    -1.862773000
P       2.405088000     3.929489000    -0.649675000
C       2.144934000     4.948237000     0.839154000
C       5.808931000     2.257029000    -0.008972000
P       4.526879000     1.347526000    -0.939420000
C       4.816122000     1.743925000    -2.698747000
Pt      2.415549000     1.636094000    -0.214067000
Cl      0.199254000     1.958613000     0.552518000
H       0.958801000    -1.361867000    -1.666668000
H      -0.173405000    -0.826244000    -0.414332000
H       0.609835000    -2.423933000    -0.282416000
H       3.196397000    -1.443457000     0.073475000
H       1.570961000    -1.940193000     2.285514000
H       0.868277000    -0.302134000     2.365178000
H       2.592318000    -0.541361000     2.693104000
H       0.169719000     4.099580000    -1.488830000
H       1.331209000     3.934509000    -2.814841000
H       1.143805000     5.505003000    -1.998835000
H       3.590879000     4.465930000    -1.195402000
H       1.207681000     4.640118000     1.297456000
H       2.955171000     4.778286000     1.545397000
H       2.103973000     6.003591000     0.575025000
H       5.759819000     1.980035000     1.042055000
H       5.631246000     3.327381000    -0.096484000
H       6.798308000     2.025989000    -0.400993000
H       4.982467000     0.016423000    -0.853115000
H       4.150906000     1.147383000    -3.319542000
H       5.850485000     1.537112000    -2.969433000
H       4.605211000     2.797481000    -2.873306000