32
energy: -11583414330.440350 kJ/mol; low freq (cm^-1) (cm^-1): 34.36, 40.61, 42.66
C       1.026670000    -1.178679000    -2.019906000
P       1.948684000    -0.494531000    -0.602475000
C       1.170512000    -1.156286000     0.908849000
C       1.498503000     4.934504000    -2.098623000
P       2.303260000     4.150706000    -0.661833000
C       1.634602000     4.967439000     0.825574000
C       5.291558000     0.809831000     0.685208000
P       4.498957000     1.633111000    -0.740578000
C       5.153162000     0.793225000    -2.225677000
Pt      2.241571000     1.822464000    -0.634944000
I      -0.424211000     2.024272000    -0.510457000
H       1.526155000    -0.902347000    -2.946356000
H       0.027340000    -0.749754000    -2.019509000
H       0.968920000    -2.263121000    -1.942822000
H       3.152095000    -1.230774000    -0.655979000
H       1.105391000    -2.241667000     0.854290000
H       0.175960000    -0.725951000     1.000317000
H       1.758662000    -0.866820000     1.777451000
H       0.443530000     4.670519000    -2.089621000
H       1.946951000     4.560354000    -3.016708000
H       1.613960000     6.016003000    -2.048501000
H       3.615058000     4.668040000    -0.728723000
H       0.582843000     4.706984000     0.918953000
H       1.746549000     6.047219000     0.741725000
H       2.164664000     4.611351000     1.706579000
H       4.932010000    -0.214607000     0.761370000
H       6.373757000     0.800058000     0.564174000
H       5.031814000     1.339764000     1.599234000
H       5.170828000     2.871493000    -0.779742000
H       4.788808000    -0.231923000    -2.255604000
H       6.241979000     0.784479000    -2.207704000
H       4.807457000     1.312643000    -3.116963000