32
energy: -12418268425.942339 kJ/mol; low freq (cm^-1) (cm^-1): 37.79, 38.97, 45.37
C       1.257455000    -1.455591000    -1.536896000
P       2.259350000    -0.542012000    -0.318134000
C       1.703000000    -1.074332000     1.334469000
C       0.877917000     4.534593000    -2.268412000
P       1.966068000     4.068278000    -0.882155000
C       1.325100000     4.914602000     0.599732000
C       5.531279000     1.304157000     0.415132000
P       4.488774000     1.857573000    -0.979176000
C       5.089239000     0.942961000    -2.442042000
Pt      2.261369000     1.773161000    -0.624778000
Br     -0.204310000     1.662239000    -0.229708000
H       1.636796000    -1.264226000    -2.538663000
H       0.233562000    -1.094164000    -1.473981000
H       1.291120000    -2.523812000    -1.329707000
H       3.520155000    -1.166650000    -0.430918000
H       1.716061000    -2.160515000     1.406469000
H       0.693183000    -0.701119000     1.489301000
H       2.355310000    -0.648609000     2.094270000
H      -0.097793000     4.083565000    -2.102057000
H       1.288757000     4.152415000    -3.200608000
H       0.784376000     5.617746000    -2.326182000
H       3.155830000     4.774506000    -1.161088000
H       0.362788000     4.475612000     0.853189000
H       2.010692000     4.765610000     1.431357000
H       1.210996000     5.979762000     0.405455000
H       5.327334000     0.256781000     0.629671000
H       5.297035000     1.893489000     1.299133000
H       6.585837000     1.419303000     0.169190000
H       4.977004000     3.157930000    -1.218745000
H       4.870285000    -0.116701000    -2.324417000
H       4.580359000     1.307706000    -3.331777000
H       6.164072000     1.074745000    -2.556922000