41
energy: -13530047707.030596 kJ/mol; low freq (cm^-1) (cm^-1): 18.32, 38.09, 57.72
C      -0.821324000     0.325679000    -0.849137000
P       1.002438000     0.322514000    -0.707078000
C       1.411477000    -0.872815000     0.620404000
C       1.330842000     1.913934000     0.120849000
C       1.144697000    -2.503860000    -4.736168000
P       1.597257000    -2.197732000    -2.986274000
C       0.064459000    -2.806625000    -2.187725000
C       2.807696000    -3.488976000    -2.528642000
C       4.639450000    -1.641349000    -4.980211000
P       3.878231000    -0.076668000    -4.393091000
C       5.377789000     0.842259000    -3.900176000
C       3.276192000     0.738590000    -5.910022000
Pt      2.252164000    -0.046187000    -2.670313000
Cl      2.694462000     2.278644000    -2.698948000
H      -1.109734000     1.056855000    -1.602401000
H      -1.260681000     0.607863000     0.107311000
H      -1.202300000    -0.647613000    -1.138820000
H       1.257257000    -1.900779000     0.308560000
H       0.804653000    -0.673739000     1.503283000
H       2.461923000    -0.747010000     0.878420000
H       0.990394000     2.735401000    -0.501966000
H       0.800694000     1.922208000     1.073257000
H       2.397638000     2.034688000     0.288769000
H       0.884067000    -3.552430000    -4.877440000
H       0.278775000    -1.887852000    -4.973858000
H       1.944226000    -2.240640000    -5.418489000
H      -0.091456000    -3.842627000    -2.487283000
H      -0.782995000    -2.217065000    -2.528282000
H       0.118926000    -2.765531000    -1.105145000
H       2.425430000    -4.475793000    -2.788261000
H       2.979656000    -3.442789000    -1.454412000
H       3.754011000    -3.325152000    -3.033280000
H       3.916610000    -2.360666000    -5.349954000
H       5.206063000    -2.091870000    -4.167484000
H       5.331916000    -1.403188000    -5.787215000
H       5.120628000     1.870462000    -3.670923000
H       6.103388000     0.804855000    -4.712353000
H       5.806819000     0.380460000    -3.012602000
H       2.458092000     0.164839000    -6.341870000
H       4.080901000     0.824927000    -6.639484000
H       2.910261000     1.727780000    -5.644545000