41
energy: -5039537.644000 kJ/mol; low freq (cm^-1): 19.82, 32.91, 59.35
C      -0.575681000     0.702808000    -0.611249000
P       1.143213000     0.088827000    -0.559824000
C       1.106207000    -1.463746000     0.420021000
C       1.982073000     1.199999000     0.624199000
C       1.326870000    -2.338265000    -5.014183000
P       1.447700000    -2.069294000    -3.203831000
C       2.290637000    -3.560125000    -2.564778000
C      -0.320120000    -2.304883000    -2.775276000
C       4.808605000    -1.519580000    -4.615830000
P       3.896456000     0.047006000    -4.322749000
C       5.285034000     1.160711000    -3.908196000
C       3.332464000     0.624723000    -5.960682000
Pt      2.258674000    -0.021972000    -2.631834000
Br      2.538026000     2.459093000    -2.451842000
H      -0.570290000     1.679326000    -1.093270000
H      -0.975281000     0.798068000     0.398081000
H      -1.208493000     0.031729000    -1.187165000
H       0.574908000    -2.268862000    -0.076627000
H       0.628389000    -1.273925000     1.380893000
H       2.133110000    -1.781285000     0.598297000
H       1.943246000     2.223379000     0.265298000
H       1.488619000     1.121116000     1.592974000
H       3.025718000     0.906771000     0.723521000
H       0.831820000    -3.290392000    -5.203737000
H       2.296560000    -2.349441000    -5.498327000
H       0.728446000    -1.537446000    -5.446009000
H       1.792013000    -4.462905000    -2.917197000
H       2.284415000    -3.546248000    -1.476967000
H       3.325445000    -3.565733000    -2.900667000
H      -0.662547000    -3.260171000    -3.172560000
H      -0.898420000    -1.504106000    -3.234029000
H      -0.493898000    -2.291766000    -1.705455000
H       4.167808000    -2.329196000    -4.949434000
H       5.288788000    -1.816341000    -3.683770000
H       5.579522000    -1.354366000    -5.368282000
H       4.937485000     2.187893000    -3.864749000
H       6.059842000     1.056760000    -4.667925000
H       5.691854000     0.891177000    -2.935120000
H       2.586459000    -0.050728000    -6.372627000
H       4.174611000     0.695071000    -6.648746000
H       2.883101000     1.608816000    -5.835312000