41
energy: -4721555.983000 kJ/mol; low freq (cm^-1): 19.29, 31.17, 62.83
C       0.008094000     1.019080000    -0.185496000
P       1.402012000    -0.141483000    -0.388452000
C       0.777053000    -1.779676000     0.156592000
C       2.519425000     0.249456000     1.004762000
C       0.923744000    -1.301700000    -5.304326000
P       1.037799000    -1.548112000    -3.490918000
C      -0.714830000    -1.220028000    -3.063636000
C       1.241265000    -3.351853000    -3.276808000
C       4.427867000    -1.948285000    -4.829031000
P       4.145482000    -0.266551000    -4.148324000
C       5.825034000     0.109655000    -3.531778000
C       3.942988000     0.832434000    -5.591627000
Pt      2.500851000    -0.119048000    -2.470383000
I       3.600588000     2.218506000    -1.744684000
H       0.369916000     2.023348000    -0.398463000
H      -0.374201000     0.977443000     0.833956000
H      -0.793210000     0.781350000    -0.880676000
H       0.024286000    -2.189414000    -0.507795000
H       0.347725000    -1.689730000     1.153936000
H       1.617532000    -2.470858000     0.200114000
H       2.820258000     1.290883000     0.957702000
H       2.001064000     0.051433000     1.942793000
H       3.410216000    -0.372181000     0.943537000
H       0.128896000    -1.931001000    -5.703711000
H       1.847976000    -1.543597000    -5.815340000
H       0.679000000    -0.258868000    -5.498023000
H      -1.358633000    -1.855177000    -3.671424000
H      -0.936570000    -0.177633000    -3.285447000
H      -0.929440000    -1.407128000    -2.018225000
H       0.468285000    -3.891053000    -3.824104000
H       2.219659000    -3.655210000    -3.642173000
H       1.177606000    -3.604130000    -2.220838000
H       3.554099000    -2.358958000    -5.322716000
H       5.248082000    -1.915787000    -5.545476000
H       4.707439000    -2.608082000    -4.008953000
H       5.901505000     1.162989000    -3.282949000
H       6.024353000    -0.473907000    -2.635489000
H       6.551942000    -0.146651000    -4.302325000
H       3.028516000     0.596365000    -6.129811000
H       4.793836000     0.733893000    -6.265086000
H       3.881491000     1.857263000    -5.229898000