23
energy: -4533918.198000 kJ/mol; low freq (cm^-1): 26.8, 49.02, 54.71
P      -0.279264000     0.063674000    -0.038206000
C       1.309636000    -0.531733000    -0.711977000
P      -0.325693000     1.660654000    -3.128496000
C      -1.158195000     1.088243000    -4.647347000
P      -3.142068000     1.640776000     0.548997000
C      -4.831250000     1.094998000     0.133181000
Pt     -1.592733000     1.499915000    -1.182886000
Cl     -3.019248000     3.010319000    -2.290901000
H       0.071145000     0.538294000     1.240999000
H      -0.941629000    -1.125960000     0.324619000
H       1.782683000    -1.203724000     0.001371000
H       1.967065000     0.315034000    -0.898479000
H       1.135748000    -1.064027000    -1.644942000
H       0.936461000     1.038924000    -3.166715000
H       0.033388000     2.994234000    -3.382046000
H      -0.537223000     1.292265000    -5.516941000
H      -1.347640000     0.019537000    -4.571738000
H      -2.105488000     1.615615000    -4.729144000
H      -2.839894000     0.973983000     1.754085000
H      -3.273062000     2.962239000     1.005513000
H      -5.156565000     1.650637000    -0.743035000
H      -4.815957000     0.032476000    -0.100419000
H      -5.503216000     1.279626000     0.968508000