23
energy: -11605080873.708658 kJ/mol; low freq (cm^-1) (cm^-1): 25.41, 44.03, 57.34
P       0.075431000    -0.424328000    -1.014323000
C       1.495029000    -0.228473000     0.114717000
P      -1.215155000     1.959914000    -2.985096000
C      -1.865194000     0.897505000    -4.323537000
P      -3.185505000     2.803009000    -0.358302000
C      -4.849272000     2.148785000     0.004853000
Pt     -1.547451000     1.236471000    -0.869343000
Br     -1.912170000     0.381884000     1.436354000
H      -0.442547000    -1.702367000    -0.749758000
H       0.669438000    -0.640621000    -2.275518000
H       2.172156000    -1.074578000     0.020541000
H       1.111044000    -0.163438000     1.129892000
H       2.019134000     0.693357000    -0.129000000
H       0.134560000     2.153124000    -3.338351000
H      -1.729130000     3.234893000    -3.289789000
H      -1.409911000    -0.088285000    -4.252318000
H      -2.941453000     0.792201000    -4.204421000
H      -1.643339000     1.332072000    -5.296129000
H      -3.410680000     3.815498000    -1.313541000
H      -2.837223000     3.574580000     0.762122000
H      -5.236466000     1.644654000    -0.878143000
H      -4.760282000     1.430105000     0.815938000
H      -5.518013000     2.958038000     0.290150000