23
energy: -4102164.457000 kJ/mol; low freq (cm^-1): 22.38, 42.13, 52.98
P       0.525781000    -0.609033000    -1.018808000
C       2.020491000    -0.208009000    -0.051923000
P      -1.116812000     1.571196000    -3.013582000
C      -2.495014000     1.075057000    -4.108753000
P      -3.008170000     2.323553000    -0.367208000
C      -4.619203000     1.539005000    -0.020599000
Pt     -1.238506000     0.891981000    -0.850125000
I      -1.443246000     0.087814000     1.681382000
H       0.180936000    -1.917785000    -0.645389000
H       1.019817000    -0.832436000    -2.321326000
H       2.776105000    -0.978258000    -0.190800000
H       1.740870000    -0.140073000     0.996547000
H       2.409470000     0.753728000    -0.380031000
H       0.030307000     1.170287000    -3.725303000
H      -1.036956000     2.966414000    -3.190371000
H      -2.334457000     1.449487000    -5.117718000
H      -3.427650000     1.477519000    -3.718063000
H      -2.563752000    -0.010570000    -4.125681000
H      -2.752629000     3.154545000     0.734800000
H      -3.314438000     3.291140000    -1.348183000
H      -4.932817000     0.966459000    -0.891171000
H      -5.365857000     2.295225000     0.211755000
H      -4.494269000     0.862752000     0.821554000