23
energy: -4614775.817000 kJ/mol; low freq (cm^-1): 3.48, 7.18, 26.58
C       0.055638000     0.054568000     4.216751000
N       0.070441000    -0.032944000     5.368898000
C      -0.081610000    -0.174686000     6.790952000
C      -0.584345000    -1.590824000     7.110928000
C      -2.017480000    -1.813685000     6.627033000
C      -2.966693000    -0.743149000     7.170797000
C      -2.480159000     0.665757000     6.822846000
C      -1.049434000     0.900758000     7.308126000
Au     -0.064419000     0.199543000     2.298132000
Cl     -0.299255000     0.360318000     0.027314000
H       0.909273000    -0.023712000     7.219719000
H      -0.535636000    -1.700450000     8.196872000
H       0.096844000    -2.325766000     6.681597000
H      -2.349011000    -2.807329000     6.930387000
H      -2.040347000    -1.801494000     5.534320000
H      -3.037771000    -0.842317000     8.258858000
H      -3.970964000    -0.899371000     6.775614000
H      -3.137241000     1.416214000     7.263648000
H      -2.527776000     0.811879000     5.740690000
H      -0.689467000     1.887103000     7.014805000
H      -1.012839000     0.854397000     8.399070000
Br     -3.154591000    -0.242633000     0.566934000
Br     -5.418761000    -0.720247000     1.035305000