23
energy: -30402851748648.613281 kJ/mol; low freq (cm^-1) (cm^-1) (cm^-1): 2.91, 6.74, 24.1
C       0.036479000     0.165071000     4.526919000
N      -0.001234000     0.049666000     5.675952000
C      -0.218396000    -0.141547000     7.083843000
C      -0.556696000    -1.616487000     7.349573000
C      -1.916787000    -2.005583000     6.769357000
C      -3.026383000    -1.075556000     7.266058000
C      -2.701108000     0.391391000     6.974397000
C      -1.344485000     0.791590000     7.555022000
Au     -0.024898000     0.335441000     2.582131000
I      -0.274318000     0.517169000     0.024585000
H       0.717986000     0.122967000     7.575424000
H      -0.563108000    -1.743761000     8.434648000
H       0.237648000    -2.250352000     6.954925000
H      -2.138406000    -3.039792000     7.034943000
H      -1.872038000    -1.970616000     5.677863000
H      -3.154021000    -1.209768000     8.345156000
H      -3.975189000    -1.346238000     6.801808000
H      -3.473870000     1.042256000     7.384800000
H      -2.700155000     0.557857000     5.894204000
H      -1.094601000     1.822199000     7.302250000
H      -1.369624000     0.722895000     8.645121000
Cl     -3.153321000    -0.309989000     0.836636000
Cl     -5.096371000    -0.870129000     1.420129000