23
energy: -26643097346373.773438 kJ/mol; low freq (cm^-1) (cm^-1) (cm^-1): 11.48, 25.27, 26.27
C       0.187098000     0.069433000     2.126230000
N       0.137151000     0.042829000     3.280576000
C      -0.252540000    -0.065008000     4.661501000
C      -0.608576000    -1.528115000     4.968794000
C      -1.875805000    -1.976299000     4.239065000
C      -3.051297000    -1.039484000     4.525475000
C      -2.705463000     0.410856000     4.183191000
C      -1.443846000     0.874026000     4.913520000
Au     -0.064974000     0.076409000     0.203542000
Br     -0.700882000     0.042647000    -2.124184000
H       0.606908000     0.246536000     5.254671000
H      -0.758857000    -1.590255000     6.049281000
H       0.238572000    -2.169365000     4.723575000
H      -2.119328000    -2.996767000     4.537246000
H      -1.689792000    -2.006739000     3.162384000
H      -3.317847000    -1.107846000     5.585501000
H      -3.925927000    -1.353284000     3.956577000
H      -3.534125000     1.070907000     4.441197000
H      -2.565923000     0.506386000     3.103592000
H      -1.172084000     1.891063000     4.629512000
H      -1.615436000     0.874452000     5.992698000
I      -3.429785000    -0.402961000    -0.234995000
I      -5.714395000    -0.762573000     1.261792000