23
energy: -28834646312058.492188 kJ/mol; low freq (cm^-1) (cm^-1) (cm^-1): 5.17, 22.37, 23.68
C       0.192437000     0.165541000     2.153302000
N       0.156810000     0.099980000     3.306630000
C      -0.191528000    -0.070691000     4.692212000
C      -0.498896000    -1.554331000     4.951179000
C      -1.778257000    -2.009594000     4.247348000
C      -2.968082000    -1.116386000     4.604606000
C      -2.671230000     0.354879000     4.308519000
C      -1.398452000     0.826013000     5.013780000
Au     -0.108997000     0.176529000     0.223834000
I      -0.930184000     0.068218000    -2.223395000
H       0.677119000     0.241841000     5.271186000
H      -0.608016000    -1.663842000     6.032509000
H       0.356149000    -2.161645000     4.653009000
H      -1.985105000    -3.046275000     4.515150000
H      -1.629258000    -1.999264000     3.164968000
H      -3.202609000    -1.232667000     5.667609000
H      -3.848788000    -1.433209000     4.047469000
H      -3.507051000     0.982550000     4.618892000
H      -2.572759000     0.494910000     3.229526000
H      -1.162506000     1.859500000     4.758886000
H      -1.534111000     0.786129000     6.096959000
Br     -3.340246000    -0.735379000    -0.314187000
Br     -5.124535000    -1.340387000     1.180708000