23
energy: -27427397028579.171875 kJ/mol; low freq (cm^-1) (cm^-1) (cm^-1): 13.52, 23.24, 26.51
C       0.375769000     0.038040000     4.351773000
N       0.312462000    -0.002414000     5.505428000
C      -0.117996000    -0.106824000     6.874729000
C      -0.613277000    -1.538666000     7.133357000
C      -1.892989000    -1.851510000     6.356394000
C      -2.988192000    -0.819956000     6.635918000
C      -2.503719000     0.602918000     6.350195000
C      -1.226497000     0.928688000     7.126075000
Au      0.147935000     0.071224000     2.436116000
Cl     -0.421361000     0.082839000     0.219901000
H       0.750819000     0.110136000     7.495487000
H      -0.800760000    -1.613250000     8.207209000
H       0.179283000    -2.248201000     6.894092000
H      -2.236045000    -2.852925000     6.618953000
H      -1.677495000    -1.871704000     5.285132000
H      -3.295299000    -0.894281000     7.684423000
H      -3.868423000    -1.036757000     6.031225000
H      -3.277068000     1.326762000     6.608656000
H      -2.326269000     0.718310000     5.278220000
H      -0.857345000     1.924841000     6.880827000
H      -1.427012000     0.913525000     8.200165000
I      -3.224188000    -0.027803000     1.947992000
I      -5.579724000    -0.088279000     3.350649000