23
energy: -28834646785107.785156 kJ/mol; low freq (cm^-1) (cm^-1) (cm^-1): 9.38, 24.23, 25.38
C       1.348117000    -0.846356000     5.395685000
N       0.816871000    -0.912654000     6.419574000
C      -0.097654000    -0.853629000     7.529252000
C      -1.270281000    -1.810566000     7.261534000
C      -2.140941000    -1.339503000     6.095636000
C      -2.624572000     0.097977000     6.298236000
C      -1.452740000     1.053793000     6.529668000
C      -0.577505000     0.597463000     7.698027000
Au      1.922060000    -0.563863000     3.550911000
I       2.267494000     0.005284000     1.054935000
H       0.458170000    -1.173973000     8.410064000
H      -1.861132000    -1.840722000     8.180104000
H      -0.888472000    -2.817461000     7.090301000
H      -2.989212000    -2.016055000     5.985569000
H      -1.574350000    -1.403480000     5.163202000
H      -3.298704000     0.134714000     7.160484000
H      -3.196540000     0.423195000     5.430079000
H      -1.817268000     2.062453000     6.725900000
H      -0.853489000     1.120380000     5.618464000
H       0.283678000     1.253300000     7.828635000
H      -1.150437000     0.626967000     8.628041000
Br     -0.589986000     1.079385000     1.951733000
Br     -2.737629000     1.870283000     2.686246000