23
energy: -3547124.965000 kJ/mol; low freq (cm^-1): 13.37, 24.79, 25.9
C       0.214960000     0.077119000     2.137728000
N       0.150345000     0.059379000     3.291024000
C      -0.218888000    -0.056567000     4.676678000
C      -0.538422000    -1.527763000     4.985485000
C      -1.805635000    -2.001180000     4.272364000
C      -2.997132000    -1.092041000     4.579922000
C      -2.688599000     0.366553000     4.237426000
C      -1.426262000     0.855214000     4.948916000
Au     -0.014386000     0.019337000     0.197514000
I      -0.678916000    -0.141014000    -2.292489000
H       0.642402000     0.272840000     5.257431000
H      -0.672123000    -1.595477000     6.067783000
H       0.319036000    -2.149643000     4.726661000
H      -2.021528000    -3.028198000     4.569152000
H      -1.634575000    -2.022520000     3.192967000
H      -3.246837000    -1.170181000     5.643336000
H      -3.872506000    -1.422448000     4.021906000
H      -3.527466000     1.007020000     4.510604000
H      -2.569303000     0.468333000     3.156049000
H      -1.181383000     1.878756000     4.663878000
H      -1.580875000     0.849128000     6.030637000
I      -3.420126000    -0.393764000    -0.221140000
I      -5.662022000    -0.585407000     1.403131000