23
energy: -4410524.224000 kJ/mol; low freq (cm^-1): 14.16, 24.04, 33.54
C       0.039728000     0.135799000     2.000357000
N       0.015407000     0.047367000     3.151867000
C      -0.225233000    -0.128412000     4.558205000
C      -0.596793000    -1.595152000     4.826975000
C      -1.955802000    -1.961113000     4.229079000
C      -3.053812000    -1.006617000     4.703743000
C      -2.695427000     0.450688000     4.404318000
C      -1.340773000     0.829821000     5.003857000
Au     -0.115661000     0.237616000     0.045262000
I      -0.432389000     0.334301000    -2.490567000
H       0.708189000     0.120889000     5.063052000
H      -0.620620000    -1.715668000     5.912704000
H       0.191129000    -2.246112000     4.447224000
H      -2.201479000    -2.988945000     4.498540000
H      -1.897169000    -1.933266000     3.138760000
H      -3.199640000    -1.129723000     5.782074000
H      -3.998277000    -1.261506000     4.223980000
H      -3.461761000     1.120252000     4.796504000
H      -2.674760000     0.604509000     3.323155000
H      -1.066520000     1.853394000     4.747280000
H      -1.384318000     0.770216000     6.094021000
Cl     -2.930642000    -0.674363000     0.524592000
Cl     -4.775755000    -1.304733000     1.224403000