23
energy: -33379051464390.332031 kJ/mol; low freq (cm^-1) (cm^-1) (cm^-1): 1.9, 9.67, 28.86
C      -0.049040000     0.210825000     4.207384000
N      -0.015746000     0.099276000     5.357481000
C      -0.098977000    -0.077311000     6.780826000
C      -0.498362000    -1.527483000     7.093508000
C      -1.934525000    -1.831154000     6.666107000
C      -2.923367000    -0.832252000     7.272041000
C      -2.540544000     0.610473000     6.933331000
C      -1.107161000     0.925568000     7.362014000
Au     -0.161938000     0.376939000     2.290079000
Cl     -0.353748000     0.553691000     0.022929000
H       0.898401000     0.127582000     7.170738000
H      -0.395967000    -1.653357000     8.173950000
H       0.207577000    -2.210501000     6.620700000
H      -2.190687000    -2.849051000     6.962020000
H      -2.004891000    -1.799775000     5.575788000
H      -2.940266000    -0.955424000     8.359824000
H      -3.932681000    -1.043950000     6.917320000
H      -3.223067000     1.310137000     7.417030000
H      -2.643158000     0.772855000     5.857265000
H      -0.822120000     1.937764000     7.074488000
H      -1.020132000     0.861590000     8.449211000
Cl     -3.095398000    -0.519285000     0.343869000
Cl     -4.999792000    -1.267790000     0.587632000