23
energy: -4728501.004000 kJ/mol; low freq (cm^-1): 2.8, 8.39, 26.5
C      -0.034508000     0.161479000     4.330753000
N      -0.061582000     0.067163000     5.482408000
C      -0.265502000    -0.107374000     6.894083000
C      -0.589799000    -1.581076000     7.182857000
C      -1.951447000    -1.988896000     6.619566000
C      -3.064202000    -1.060590000     7.112506000
C      -2.752772000     0.404649000     6.797953000
C      -1.394888000     0.823116000     7.362545000
Au     -0.090654000     0.301382000     2.399300000
Br     -0.271834000     0.450158000     0.003273000
H       0.672512000     0.170744000     7.374939000
H      -0.586107000    -1.693823000     8.269566000
H       0.206175000    -2.213968000     6.789973000
H      -2.162771000    -3.021000000     6.901323000
H      -1.915557000    -1.968623000     5.527352000
H      -3.181772000    -1.180658000     8.194401000
H      -4.014931000    -1.345172000     6.660476000
H      -3.527602000     1.055221000     7.204930000
H      -2.760742000     0.555959000     5.715533000
H      -1.155195000     1.852089000     7.093839000
H      -1.411271000     0.769033000     8.453623000
Cl     -3.153261000    -0.261298000     0.586277000
Cl     -5.127705000    -0.741529000     1.013309000