23
energy: -3547124.997000 kJ/mol; low freq (cm^-1): 14.65, 24.96, 26.58
C      -0.232439000     1.910287000     5.056124000
N      -0.409908000     1.592365000     6.152557000
C      -0.693562000     0.915310000     7.390088000
C       0.232469000    -0.306077000     7.510877000
C      -0.092729000    -1.378637000     6.470312000
C      -1.567128000    -1.783119000     6.522120000
C      -2.485687000    -0.569324000     6.367038000
C      -2.175267000     0.507710000     7.407496000
Au      0.028443000     2.106587000     3.129209000
I       0.322115000     1.993074000     0.567119000
H      -0.488158000     1.627053000     8.189334000
H       0.088541000    -0.705308000     8.517833000
H       1.271546000     0.015847000     7.436838000
H       0.545590000    -2.246892000     6.634882000
H       0.148740000    -1.011232000     5.470051000
H      -1.775154000    -2.273829000     7.478796000
H      -1.774801000    -2.511599000     5.739125000
H      -3.530904000    -0.866604000     6.459972000
H      -2.372312000    -0.154042000     5.362363000
H      -2.798618000     1.390659000     7.263338000
H      -2.380386000     0.127435000     8.411038000
I      -0.106779000    -1.140659000     1.928497000
I      -0.423708000    -3.693943000     2.969507000