23
energy: -4500999.003000 kJ/mol; low freq (cm^-1): 14.94, 26.69, 37.44
C       0.032598000     0.032494000     1.962944000
N      -0.006939000    -0.043853000     3.114245000
C      -0.268214000    -0.173571000     4.522440000
C      -0.786615000    -1.590099000     4.815001000
C      -2.175970000    -1.827670000     4.222298000
C      -3.171903000    -0.757272000     4.673986000
C      -2.666397000     0.650015000     4.348833000
C      -1.281564000     0.900955000     4.946526000
Au     -0.074193000     0.142033000     0.017328000
Br     -0.284217000     0.270544000    -2.356811000
H       0.684827000    -0.011155000     5.026102000
H      -0.821170000    -1.687828000     5.902786000
H      -0.068921000    -2.324314000     4.448035000
H      -2.525203000    -2.819218000     4.512499000
H      -2.115204000    -1.829092000     3.131927000
H      -3.332692000    -0.843780000     5.753777000
H      -4.135582000    -0.924308000     4.193849000
H      -3.361337000     1.401495000     4.725314000
H      -2.628523000     0.779963000     3.264893000
H      -0.903981000     1.886417000     4.672459000
H      -1.332328000     0.865982000     6.037460000
Br     -2.959819000    -0.616206000     0.417694000
Br     -5.108779000    -1.267408000     1.167121000