23
energy: -4728502.958000 kJ/mol; low freq (cm^-1): 16.14, 27.61, 38.57
C       0.013928000     0.055412000     1.944230000
N      -0.013959000    -0.043817000     3.094809000
C      -0.258749000    -0.188448000     4.503907000
C      -0.761146000    -1.612160000     4.788986000
C      -2.152849000    -1.857032000     4.204808000
C      -3.154928000    -0.801209000     4.677264000
C      -2.666051000     0.614820000     4.364203000
C      -1.277446000     0.871835000     4.950499000
Au     -0.083792000     0.186132000     0.004135000
Br     -0.272270000     0.336027000    -2.372185000
H       0.697887000    -0.022299000     4.999506000
H      -0.787024000    -1.720078000     5.876015000
H      -0.039894000    -2.336616000     4.409952000
H      -2.490044000    -2.855202000     4.486546000
H      -2.100017000    -1.845287000     3.114063000
H      -3.304877000    -0.901721000     5.757343000
H      -4.122106000    -0.971822000     4.205119000
H      -3.364325000     1.354673000     4.757224000
H      -2.639785000     0.759075000     3.281893000
H      -0.912218000     1.863683000     4.683018000
H      -1.316936000     0.824810000     6.041433000
Cl     -2.959749000    -0.534262000     0.524369000
Cl     -4.861603000    -1.034991000     1.155259000