23
energy: -27427398577637.261719 kJ/mol; low freq (cm^-1) (cm^-1) (cm^-1): 13.8, 26.1, 29.0
C       0.121607000     0.111053000     2.001138000
N       0.109256000     0.062337000     3.154695000
C      -0.107434000    -0.060710000     4.570919000
C      -0.539226000    -1.499151000     4.895189000
C      -1.928772000    -1.819817000     4.343448000
C      -2.969616000    -0.800139000     4.810527000
C      -2.551350000     0.628496000     4.456438000
C      -1.166027000     0.962701000     5.010545000
Au     -0.023672000     0.171224000     0.067174000
Cl     -0.290409000     0.225063000    -2.181209000
H       0.848379000     0.160772000     5.046053000
H      -0.539851000    -1.583764000     5.984620000
H       0.207638000    -2.198211000     4.517909000
H      -2.214986000    -2.825584000     4.653022000
H      -1.897374000    -1.830586000     3.251613000
H      -3.096749000    -0.882339000     5.895131000
H      -3.935721000    -1.025240000     4.359451000
H      -3.276171000     1.345064000     4.844425000
H      -2.551319000     0.747040000     3.370487000
H      -0.851139000     1.963307000     4.713102000
H      -1.183537000     0.940756000     6.102871000
I      -3.102832000    -0.654579000     0.419118000
I      -5.537401000    -1.378518000     1.458179000