23
energy: -4500999.619000 kJ/mol; low freq (cm^-1): 12.24, 26.78, 29.5
C       0.235259000     0.315443000     4.507415000
N       0.186836000     0.142820000     5.649465000
C      -0.211857000    -0.182938000     6.993558000
C      -0.715425000    -1.635628000     7.019935000
C      -2.017551000    -1.807452000     6.235974000
C      -3.094506000    -0.830494000     6.712074000
C      -2.601729000     0.617393000     6.657369000
C      -1.302907000     0.801436000     7.443752000
Au     -0.014539000     0.451315000     2.591435000
Br     -0.666849000     0.457486000     0.265455000
H       0.673914000    -0.077170000     7.619180000
H      -0.875195000    -1.889212000     8.070756000
H       0.063823000    -2.298484000     6.642906000
H      -2.365338000    -2.835824000     6.337631000
H      -1.833182000    -1.654101000     5.170013000
H      -3.378125000    -1.076771000     7.740721000
H      -3.988392000    -0.942472000     6.099065000
H      -3.359804000     1.293657000     7.054177000
H      -2.445413000     0.908997000     5.615729000
H      -0.930416000     1.822811000     7.360588000
H      -1.477821000     0.606423000     8.504522000
Br     -3.013109000    -0.845135000     1.834767000
Br     -4.760308000    -1.834851000     3.105175000