23
energy: -26643097382391.007812 kJ/mol; low freq (cm^-1) (cm^-1) (cm^-1): 12.05, 25.24, 25.5
C       0.244684000     0.244669000     4.470689000
N       0.163933000    -0.007683000     5.595611000
C      -0.264411000    -0.368557000     6.921023000
C      -0.901060000    -1.767060000     6.876039000
C      -2.216183000    -1.776244000     6.095236000
C      -3.194894000    -0.728638000     6.629484000
C      -2.568746000     0.667443000     6.640345000
C      -1.257289000     0.690137000     7.426813000
Au      0.053356000     0.597305000     2.573445000
Br     -0.499229000     0.955459000     0.252289000
H       0.627827000    -0.379192000     7.546460000
H      -1.080307000    -2.058378000     7.913925000
H      -0.187956000    -2.479224000     6.460129000
H      -2.658784000    -2.771333000     6.147219000
H      -2.021402000    -1.585086000     5.037143000
H      -3.495977000    -0.998464000     7.647182000
H      -4.098350000    -0.726923000     6.020436000
H      -3.259072000     1.392351000     7.073133000
H      -2.388014000     0.991631000     5.612279000
H      -0.790284000     1.674746000     7.391267000
H      -1.448278000     0.459956000     8.477669000
I      -3.125838000    -0.422205000     1.841262000
I      -5.310650000    -1.561725000     3.072230000