23
energy: -33379075656582.960938 kJ/mol; low freq (cm^-1) (cm^-1) (cm^-1): 5.17, 31.12, 41.8
C       0.038475000     0.083681000     1.939524000
N       0.051090000     0.036176000     3.093601000
C      -0.116198000    -0.073553000     4.516795000
C      -0.566107000    -1.500143000     4.866974000
C      -1.980790000    -1.793874000     4.366376000
C      -2.982833000    -0.748981000     4.863048000
C      -2.546476000     0.669066000     4.487489000
C      -1.135074000     0.973992000     4.990352000
Au     -0.089282000     0.132979000     0.008804000
Cl     -0.270528000     0.179918000    -2.247942000
H       0.861053000     0.129590000     4.955263000
H      -0.529823000    -1.578271000     5.956233000
H       0.151486000    -2.217373000     4.467832000
H      -2.277467000    -2.791358000     4.692438000
H      -1.985935000    -1.810999000     3.274560000
H      -3.074707000    -0.823283000     5.951697000
H      -3.968925000    -0.955208000     4.447056000
H      -3.240533000     1.402831000     4.898947000
H      -2.581341000     0.784341000     3.401918000
H      -0.809390000     1.966538000     4.677991000
H      -1.114111000     0.955749000     6.082646000
Cl     -2.941292000    -0.601898000     0.697397000
Cl     -4.827315000    -1.131763000     1.340216000