23
energy: -4614779.380000 kJ/mol; low freq (cm^-1): 16.4, 31.39, 42.89
C       0.080795000     0.022123000     1.956989000
N       0.084208000    -0.021866000     3.110645000
C      -0.111489000    -0.117373000     4.532108000
C      -0.618476000    -1.525708000     4.879553000
C      -2.034331000    -1.770517000     4.356753000
C      -3.005664000    -0.689428000     4.835970000
C      -2.514427000     0.710598000     4.461387000
C      -1.100350000     0.969080000     4.982342000
Au     -0.067034000     0.076887000     0.022690000
Cl     -0.289658000     0.136384000    -2.228199000
H       0.864842000     0.052703000     4.986222000
H      -0.603263000    -1.600346000     5.969563000
H       0.079958000    -2.269726000     4.495612000
H      -2.371073000    -2.755977000     4.680565000
H      -2.024523000    -1.790824000     3.264780000
H      -3.114587000    -0.756666000     5.923578000
H      -3.991938000    -0.861679000     4.405947000
H      -3.188183000     1.469933000     4.859882000
H      -2.531863000     0.822088000     3.375224000
H      -0.735352000     1.947192000     4.667895000
H      -1.095504000     0.958344000     6.074973000
Br     -2.985241000    -0.436369000     0.591630000
Br     -5.172573000    -0.793164000     1.414049000