13
energy: -23819331134944.003906 kJ/mol; low freq (cm^-1) (cm^-1) (cm^-1): 11.69, 16.43, 19.1
C      -0.021935000     0.271641000     1.919677000
N      -0.106901000     0.161690000     3.066659000
C      -0.199342000    -0.225208000     4.439709000
C       0.020073000    -1.727852000     4.589598000
Au      0.133472000     0.190528000    -0.021672000
Br      0.339637000    -0.105062000    -2.382177000
H      -1.184553000     0.072738000     4.798370000
H       0.544718000     0.347484000     4.993081000
H      -0.052211000    -1.995528000     5.642941000
H       1.004412000    -2.012465000     4.222534000
H      -0.728363000    -2.287654000     4.031998000
I      -0.311371000    -2.991075000     0.394564000
I      -0.702788000    -5.357930000     1.728518000