13
energy: -21627475080482.144531 kJ/mol; low freq (cm^-1) (cm^-1) (cm^-1): 4.62, 9.79, 29.26
C       0.044109000     0.011240000     2.069404000
N       0.043541000     0.037878000     3.224482000
C       0.041248000    -0.028626000     4.651794000
C      -0.119173000    -1.465372000     5.137818000
Au      0.037575000    -0.114910000     0.119863000
I       0.019823000    -0.380776000    -2.447702000
H      -0.772958000     0.603944000     5.005498000
H       0.978451000     0.406578000     4.998787000
H      -0.115923000    -1.474768000     6.226910000
H      -1.058594000    -1.889309000     4.787886000
H       0.699246000    -2.087894000     4.780920000
I      -0.360114000    -3.494059000    -1.151136000
I      -0.668506000    -6.041914000    -0.099017000