13
energy: -3773389.825000 kJ/mol; low freq (cm^-1): 8.92, 10.36, 31.1
C      -0.249865000    -0.025150000     4.375124000
N      -0.185598000    -0.002773000     5.528749000
C      -0.111966000    -0.011951000     6.955973000
C      -0.261429000    -1.423257000     7.513812000
Au     -0.349107000    -0.030373000     2.422871000
I      -0.463318000     0.023788000    -0.151294000
H      -0.898865000     0.646615000     7.324220000
H       0.847315000     0.425675000     7.233109000
H      -0.199476000    -1.385188000     8.600533000
H      -1.223346000    -1.849679000     7.234993000
H       0.530134000    -2.071798000     7.142772000
Br      0.186034000     3.048579000     0.443296000
Br      0.677599000     5.347077000     0.914239000