13
energy: -30555342876479.421875 kJ/mol; low freq (cm^-1) (cm^-1) (cm^-1): 11.49, 18.93, 40.38
C      -0.000590000     0.133860000     1.837150000
N      -0.070582000     0.084896000     2.989741000
C      -0.165389000    -0.195903000     4.387241000
C      -0.068481000    -1.696691000     4.644854000
Au      0.115270000     0.072032000    -0.091091000
Cl      0.252895000    -0.063374000    -2.346560000
H      -1.114416000     0.208895000     4.738958000
H       0.635417000     0.348103000     4.887993000
H      -0.149588000    -1.881041000     5.715314000
H      -0.868802000    -2.228889000     4.134383000
H       0.884208000    -2.087696000     4.292692000
Cl     -0.143600000    -2.903365000     0.749321000
Cl     -0.331903000    -4.809073000     1.495761000