13
energy: -3455461.434000 kJ/mol; low freq (cm^-1): 4.56, 11.85, 33.78
C      -0.920866000    -0.057877000     4.196921000
N      -0.874657000    -0.096858000     5.351148000
C      -0.770448000    -0.153881000     6.775841000
C       0.530304000    -0.816357000     7.216734000
Au     -0.972619000     0.040557000     2.260732000
Br     -1.010282000     0.192894000    -0.145737000
H      -1.639131000    -0.701380000     7.142184000
H      -0.839624000     0.869398000     7.145713000
H       0.568027000    -0.837474000     8.305087000
H       1.391147000    -0.260893000     6.849199000
H       0.589198000    -1.838249000     6.846545000
I       0.662370000     2.891483000     0.562662000
I       2.061101000     5.189722000     1.158238000