13
energy: -3137485.016000 kJ/mol; low freq (cm^-1): 10.04, 11.81, 29.71
C       0.227132000    -0.158043000     4.301581000
N       0.238664000    -0.076184000     5.454015000
C       0.237977000    -0.013203000     6.881110000
C      -0.227036000    -1.328315000     7.497455000
Au      0.208135000    -0.235194000     2.349573000
I       0.188780000    -0.280500000    -0.231024000
H      -0.413469000     0.812384000     7.168166000
H       1.251792000     0.236068000     7.194806000
H      -0.213154000    -1.237157000     8.582611000
H      -1.241159000    -1.566625000     7.181327000
H       0.431582000    -2.145571000     7.208460000
I       0.577375000     2.980626000     0.624090000
I       0.892266000     5.644237000     1.321552000