13
energy: -3773390.356000 kJ/mol; low freq (cm^-1): 8.53, 11.96, 31.04
C       0.154478000    -0.084086000     2.133856000
N       0.183741000    -0.029682000     3.287802000
C       0.178837000    -0.027893000     4.717137000
C      -0.763888000    -1.091185000     5.270961000
Au      0.096190000    -0.240380000     0.186241000
I       0.008978000    -0.544904000    -2.371995000
H      -0.115017000     0.971235000     5.039344000
H       1.204884000    -0.197246000     5.044373000
H      -0.736406000    -1.059032000     6.359308000
H      -1.786006000    -0.910753000     4.943086000
H      -0.461645000    -2.084290000     4.943725000
Br     -0.013779000    -3.552619000    -1.455123000
Br     -0.025485000    -5.840168000    -0.729848000