13
energy: -4000886.384000 kJ/mol; low freq (cm^-1): 12.64, 20.07, 27.02
C       0.027473000     0.184409000     1.886499000
N       0.002298000     0.098727000     3.038737000
C      -0.049350000    -0.233536000     4.427449000
C       0.014565000    -1.745883000     4.622186000
Au      0.054179000     0.086097000    -0.072820000
I       0.075760000    -0.205902000    -2.612129000
H      -0.973699000     0.181687000     4.829101000
H       0.784137000     0.268932000     4.918041000
H      -0.036129000    -1.970749000     5.686746000
H      -0.816678000    -2.235664000     4.118720000
H       0.943543000    -2.147560000     4.222137000
Cl     -0.189553000    -2.868759000     0.661849000
Cl     -0.357425000    -4.706289000     1.586713000