13
energy: -28987112473253.796875 kJ/mol; low freq (cm^-1) (cm^-1) (cm^-1): 10.06, 13.23, 37.4
C      -0.065689000    -0.040050000     4.148304000
N      -0.213943000    -0.021540000     5.294493000
C      -0.371734000    -0.072971000     6.713924000
C       0.215958000    -1.355574000     7.293438000
Au      0.180511000    -0.117401000     2.236649000
Cl      0.471007000    -0.255243000    -0.025698000
H      -1.438593000     0.004812000     6.924556000
H       0.116378000     0.809694000     7.127554000
H       0.074320000    -1.356210000     8.373421000
H      -0.279218000    -2.230788000     6.876836000
H       1.281613000    -1.422900000     7.082255000
Br     -0.069179000    -3.155612000     0.188997000
Br     -0.509061000    -5.466758000     0.376375000