13
energy: -24603671722930.277344 kJ/mol; low freq (cm^-1) (cm^-1) (cm^-1): 6.05, 10.77, 33.11
C      -0.018196000     0.038091000     4.131902000
N      -0.120983000     0.018998000     5.282912000
C      -0.235803000    -0.098728000     6.701966000
C      -0.040564000    -1.541684000     7.155283000
Au      0.148796000     0.014523000     2.211256000
Cl      0.344175000    -0.067077000    -0.067549000
H      -1.221062000     0.275272000     6.980707000
H       0.509995000     0.561319000     7.145138000
H      -0.135048000    -1.590631000     8.239209000
H      -0.791400000    -2.191974000     6.710036000
H       0.946569000    -1.904797000     6.874799000
I      -0.058957000    -3.168226000     0.343087000
I      -0.428816000    -5.856971000     0.753045000