13
energy: -4432649.634000 kJ/mol; low freq (cm^-1): 8.94, 14.22, 41.06
C       0.015873000    -0.072758000     4.152978000
N       0.132155000    -0.082497000     5.303597000
C       0.228775000    -0.158179000     6.727016000
C      -0.652579000    -1.270235000     7.286259000
Au     -0.190727000    -0.088058000     2.235764000
Cl     -0.447262000    -0.140322000    -0.028483000
H      -0.059993000     0.814806000     7.125192000
H       1.278056000    -0.322117000     6.973569000
H      -0.549550000    -1.296692000     8.370258000
H      -1.698328000    -1.095327000     7.040175000
H      -0.356095000    -2.237419000     6.884532000
Cl     -0.738155000    -3.081302000     0.145718000
Cl     -0.935179000    -5.126167000     0.286358000