13
energy: -28202767509901.000000 kJ/mol; low freq (cm^-1) (cm^-1) (cm^-1): 11.56, 14.68, 29.82
C       0.055124000     0.137808000     1.879339000
N      -0.036194000     0.056279000     3.027926000
C      -0.170632000    -0.287812000     4.408764000
C      -0.245840000    -1.802211000     4.580979000
Au      0.175757000     0.063697000    -0.064753000
Br      0.311670000    -0.134518000    -2.437935000
H      -1.069275000     0.202988000     4.782174000
H       0.684471000     0.133366000     4.937139000
H      -0.346040000    -2.034930000     5.640377000
H       0.654770000    -2.280193000     4.200630000
H      -1.102141000    -2.210940000     4.048276000
Br     -0.140936000    -2.901585000     0.552379000
Br     -0.400802000    -5.071780000     1.450437000