13
energy: -4091365.403000 kJ/mol; low freq (cm^-1): 7.57, 14.83, 34.84
C       0.015151000    -0.119021000     4.216968000
N      -0.112307000    -0.070822000     5.364619000
C      -0.275961000    -0.097397000     6.783460000
C      -0.280239000    -1.527281000     7.313845000
Au      0.173228000    -0.244078000     2.290082000
Br      0.308710000    -0.455596000    -0.108852000
H      -1.211827000     0.412930000     7.011795000
H       0.537277000     0.485079000     7.216601000
H      -0.410252000    -1.505966000     8.394977000
H       0.659543000    -2.027187000     7.085780000
H      -1.096274000    -2.099341000     6.875867000
Br     -2.226858000    -2.085160000     0.401565000
Br     -4.196182000    -3.333144000     0.848742000