13
energy: -3569237.086000 kJ/mol; low freq (cm^-1): 10.69, 15.69, 26.75
C       0.012532000     0.258968000     1.893677000
N      -0.037655000     0.159927000     3.043700000
C      -0.119248000    -0.208140000     4.422635000
C      -0.134998000    -1.726305000     4.575219000
Au      0.085691000     0.208472000    -0.042762000
Cl      0.162086000     0.013286000    -2.296308000
H      -1.022833000     0.245836000     4.829471000
H       0.735843000     0.235970000     4.932021000
H      -0.196618000    -1.977406000     5.633320000
H      -0.989819000    -2.160051000     4.060207000
H       0.771064000    -2.165920000     4.162635000
I      -0.151434000    -2.997238000     0.484150000
I      -0.426666000    -5.391361000     1.787294000