13
energy: -4318869.891000 kJ/mol; low freq (cm^-1): 4.68, 12.57, 36.23
C       0.032820000    -0.031578000     4.266194000
N      -0.060295000    -0.018641000     5.418530000
C      -0.172710000    -0.083009000     6.840897000
C      -0.181366000    -1.526666000     7.332286000
Au      0.185101000    -0.082142000     2.335411000
Br      0.372760000    -0.191875000    -0.059780000
H      -1.090015000     0.436211000     7.119021000
H       0.666212000     0.473261000     7.259427000
H      -0.267786000    -1.533283000     8.417980000
H       0.739491000    -2.035532000     7.052890000
H      -1.023882000    -2.073123000     6.912179000
Cl     -0.086991000    -3.154944000     0.300168000
Cl     -0.405236000    -5.188630000     0.556233000