13
energy: -4318865.060000 kJ/mol; low freq (cm^-1): 6.17, 16.79, 33.48
C       0.036896000     0.103385000     1.877192000
N      -0.106720000     0.068779000     3.023404000
C      -0.268609000    -0.179573000     4.420878000
C       0.032335000    -1.638865000     4.748469000
Au      0.262027000    -0.001093000    -0.051574000
Br      0.536696000    -0.225763000    -2.412269000
H      -1.293345000     0.084448000     4.682561000
H       0.397672000     0.496591000     4.956424000
H      -0.113834000    -1.803717000     5.815120000
H       1.061519000    -1.885987000     4.494227000
H      -0.629834000    -2.302582000     4.195542000
Cl     -0.353855000    -2.902787000     0.545091000
Cl     -0.826100000    -4.824109000     1.128734000