13
energy: -27579159065389.250000 kJ/mol; low freq (cm^-1) (cm^-1) (cm^-1): 11.3, 12.49, 32.75
C      -0.024171000     0.008224000     4.421021000
N      -0.047409000    -0.030332000     5.576202000
C      -0.070581000    -0.158617000     6.999371000
C       0.058114000    -1.616842000     7.427751000
Au      0.012345000     0.010554000     2.466301000
I       0.055860000    -0.083639000    -0.105220000
H      -1.006608000     0.277088000     7.349461000
H       0.747417000     0.444915000     7.393259000
H       0.035569000    -1.672114000     8.515326000
H      -0.763792000    -2.210284000     7.031580000
H       0.996738000    -2.041654000     7.076771000
Cl     -0.063161000    -3.135429000     0.460288000
Cl     -0.137634000    -5.194780000     0.870179000