13
energy: -28987085392658.332031 kJ/mol; low freq (cm^-1) (cm^-1) (cm^-1): 12.08, 13.99, 38.2
C       0.070930000     0.165922000     1.865487000
N       0.003808000     0.110911000     3.017315000
C      -0.117400000    -0.195201000     4.408303000
C      -0.238464000    -1.701502000     4.619522000
Au      0.174491000     0.078332000    -0.067299000
Cl      0.293519000    -0.099184000    -2.318929000
H      -0.992636000     0.334168000     4.784765000
H       0.760242000     0.210487000     4.911406000
H      -0.334654000    -1.905066000     5.685233000
H      -1.112900000    -2.095659000     4.105449000
H       0.642174000    -2.217006000     4.241290000
Br     -0.228093000    -2.876294000     0.636363000
Br     -0.515612000    -5.047898000     1.510012000