16
energy: -29698494267786.800781 kJ/mol; low freq (cm^-1) (cm^-1) (cm^-1): 4.92, 14.13, 38.53
C       0.181195000    -0.050491000     1.850861000
N       0.132414000    -0.048338000     3.004771000
C      -0.120386000     0.046741000     4.417557000
C      -0.491691000    -1.330575000     4.962687000
C      -1.202662000     1.100622000     4.650997000
Au      0.139749000     0.055076000    -0.084081000
Cl      0.042018000     0.212928000    -2.338790000
H       0.817422000     0.376135000     4.868115000
H      -0.638747000    -1.260370000     6.039453000
H       0.295332000    -2.056414000     4.765709000
H      -1.416799000    -1.682988000     4.507721000
H      -2.137207000     0.797557000     4.180751000
H      -0.907390000     2.063470000     4.238956000
H      -1.367427000     1.211628000     5.721897000
Br     -2.116214000     1.984179000     0.611723000
Br     -3.824782000     3.408297000     1.400856000