16
energy: -30482458945040.488281 kJ/mol; low freq (cm^-1) (cm^-1) (cm^-1): 12.04, 13.71, 34.44
C      -0.076642000     0.211307000     4.296623000
N      -0.056506000     0.072236000     5.444338000
C      -0.099269000    -0.111106000     6.869947000
C      -0.682929000    -1.487850000     7.183071000
C      -0.877677000     1.040686000     7.503487000
Au     -0.142609000     0.433752000     2.370755000
Br     -0.273209000     0.693510000    -0.017893000
H       0.939168000    -0.073445000     7.204761000
H      -0.664133000    -1.649309000     8.259746000
H      -0.101544000    -2.273448000     6.703506000
H      -1.714092000    -1.554957000     6.837610000
H      -1.913794000     1.034719000     7.166487000
H      -0.430905000     1.999110000     7.244658000
H      -0.862347000     0.931319000     8.586738000
Cl     -3.072165000    -0.395597000     0.267362000
Cl     -4.995407000    -1.148500000     0.470474000