16
energy: -3672444.688000 kJ/mol; low freq (cm^-1): 9.88, 22.93, 32.16
C       0.180743000     0.071577000     4.156179000
N       0.099623000     0.000794000     5.307080000
C      -0.084240000    -0.069059000     6.730833000
C      -0.779508000    -1.382490000     7.088241000
C      -0.849893000     1.167466000     7.201503000
Au      0.272137000     0.221413000     2.235547000
Cl      0.335000000     0.426453000    -0.043968000
H       0.919579000    -0.060706000     7.159448000
H      -0.871327000    -1.457811000     8.170517000
H      -0.212099000    -2.239507000     6.728945000
H      -1.777404000    -1.417726000     6.652105000
H      -1.848440000     1.187781000     6.765981000
H      -0.330627000     2.082683000     6.922011000
H      -0.944420000     1.140347000     8.285864000
I      -2.349803000     2.028732000     0.402572000
I      -4.675980000     3.419059000     0.839379000