16
energy: -26722330692335.941406 kJ/mol; low freq (cm^-1) (cm^-1) (cm^-1): 1.9, 8.41, 28.58
C       0.007558000     0.384841000     4.477369000
N      -0.013399000     0.268407000     5.626624000
C      -0.069258000     0.102116000     7.053784000
C       0.081455000    -1.378673000     7.397393000
C      -1.364475000     0.714072000     7.584318000
Au      0.069141000     0.574743000     2.532940000
I       0.191871000     0.805762000    -0.030740000
H       0.784353000     0.656344000     7.448174000
H       0.091431000    -1.494255000     8.480241000
H       1.009180000    -1.781462000     6.995366000
H      -0.753577000    -1.950532000     6.993938000
H      -2.228276000     0.184443000     7.183773000
H      -1.379239000     0.632347000     8.670162000
H      -1.440909000     1.765471000     7.313235000
Br      3.061083000    -0.385072000     0.388710000
Br      5.258929000    -1.296468000     0.700577000