16
energy: -28290519664204.832031 kJ/mol; low freq (cm^-1) (cm^-1) (cm^-1): 2.75, 19.63, 26.06
C       0.145705000     0.237413000     1.861163000
N       0.114327000     0.180017000     3.014862000
C      -0.005006000    -0.087477000     4.422769000
C       0.093744000    -1.596680000     4.644315000
C      -1.308276000     0.513673000     4.944865000
Au      0.158613000     0.087260000    -0.095521000
I       0.146360000    -0.265614000    -2.627659000
H       0.842251000     0.410480000     4.897203000
H       0.042933000    -1.805470000     5.712127000
H       1.031354000    -1.988554000     4.254950000
H      -0.727393000    -2.110252000     4.145958000
H      -2.164132000     0.038432000     4.466713000
H      -1.373418000     0.347424000     6.019202000
H      -1.350422000     1.584759000     4.755165000
Cl     -0.356493000    -2.808467000     0.720952000
Cl     -0.686634000    -4.601373000     1.689551000