16
energy: -4535850.326000 kJ/mol; low freq (cm^-1): 6.41, 16.42, 39.29
C       0.191208000    -0.062264000     1.822517000
N       0.156467000    -0.053177000     2.977654000
C      -0.083428000     0.043395000     4.391870000
C      -0.628056000    -1.287467000     4.906686000
C      -1.025025000     1.219391000     4.650954000
Au      0.132813000     0.023158000    -0.108270000
Cl      0.010592000     0.162946000    -2.365062000
H       0.886987000     0.241615000     4.850109000
H      -0.768210000    -1.223469000     5.984814000
H       0.061070000    -2.102609000     4.693024000
H      -1.588843000    -1.509238000     4.443290000
H      -1.988091000     1.049041000     4.171514000
H      -0.607210000     2.147145000     4.264896000
H      -1.179747000     1.323991000     5.724017000
Cl     -2.221654000     1.822046000     0.791788000
Cl     -3.716862000     2.981593000     1.596434000