16
energy: -3558660.979000 kJ/mol; low freq (cm^-1): 5.85, 13.92, 17.48
C       0.309021000    -0.129866000     1.888951000
N       0.208266000    -0.107620000     3.039586000
C      -0.126564000     0.025327000     4.432247000
C      -0.411873000    -1.354236000     5.021605000
C      -1.303957000     0.992316000     4.560533000
Au      0.258089000    -0.007043000    -0.056774000
Br      0.036683000     0.255839000    -2.420815000
H       0.755148000     0.451893000     4.913328000
H      -0.621974000    -1.251980000     6.085218000
H       0.441840000    -2.018271000     4.897816000
H      -1.278913000    -1.802134000     4.537277000
H      -2.184064000     0.589778000     4.060911000
H      -1.070343000     1.957620000     4.116109000
H      -1.533913000     1.136882000     5.615287000
I      -2.222507000     2.001894000     0.432519000
I      -4.079956000     3.490812000     1.799567000