16
energy: -31266771325605.472656 kJ/mol; low freq (cm^-1) (cm^-1) (cm^-1): 1.21, 12.33, 38.51
C      -0.076943000    -0.054125000     4.162412000
N      -0.076887000     0.034702000     5.315316000
C      -0.135472000     0.107187000     6.749356000
C       0.185323000    -1.264493000     7.340358000
C      -1.503846000     0.637940000     7.173452000
Au     -0.098152000    -0.203579000     2.240493000
Cl     -0.150895000    -0.385699000    -0.032392000
H       0.637934000     0.819436000     7.042755000
H       0.189296000    -1.193766000     8.427151000
H       1.161808000    -1.614366000     7.010447000
H      -0.567494000    -1.993267000     7.041662000
H      -2.290513000    -0.052254000     6.870453000
H      -1.701535000     1.611016000     6.727663000
H      -1.528025000     0.739501000     8.257543000
Cl     -3.088566000    -0.671140000     0.130881000
Cl     -5.134737000    -0.867159000     0.264978000