16
energy: -3240688.873000 kJ/mol; low freq (cm^-1): 8.92, 10.54, 28.55
C      -0.138183000     0.080993000     4.349071000
N      -0.055556000     0.084742000     5.501543000
C       0.023539000     0.062482000     6.937916000
C       0.267537000    -1.370899000     7.406785000
C      -1.240313000     0.691815000     7.521205000
Au     -0.222423000     0.079655000     2.395312000
I      -0.272044000     0.079943000    -0.185051000
H       0.887260000     0.679075000     7.193958000
H       0.384384000    -1.379020000     8.489343000
H       1.171559000    -1.777021000     6.956720000
H      -0.573731000    -2.009922000     7.140915000
H      -2.118259000     0.103049000     7.257784000
H      -1.155740000     0.727506000     8.606153000
H      -1.374863000     1.706113000     7.149583000
I       2.951700000     0.693856000     0.657184000
I       5.593043000     1.190864000     1.342445000