16
energy: -28290567500369.898438 kJ/mol; low freq (cm^-1) (cm^-1) (cm^-1): 7.76, 10.69, 30.12
C      -0.003568000     0.013145000     4.443997000
N      -0.028397000     0.002010000     5.599561000
C      -0.115410000    -0.055167000     7.034718000
C      -0.029481000    -1.512448000     7.485643000
C      -1.390383000     0.652329000     7.490843000
Au      0.004855000    -0.000380000     2.488285000
I      -0.044548000    -0.074460000    -0.084176000
H       0.754244000     0.490805000     7.405418000
H      -0.039207000    -1.552655000     8.573741000
H       0.888955000    -1.975039000     7.128808000
H      -0.877530000    -2.081341000     7.106606000
H      -2.271580000     0.134984000     7.113518000
H      -1.427555000     0.658437000     8.579080000
H      -1.410722000     1.681384000     7.136575000
Cl     -2.254810000    -2.185945000     0.425111000
Cl     -3.755208000    -3.616944000     0.770438000