16
energy: -22338884405098.773438 kJ/mol; low freq (cm^-1) (cm^-1) (cm^-1): 0.66, 9.11, 28.03
C       0.269719000     0.031379000     2.043444000
N       0.195683000     0.106573000     3.193926000
C       0.055698000     0.118757000     4.625004000
C       0.480405000    -1.238675000     5.183003000
C      -1.379742000     0.494789000     4.988319000
Au      0.346428000    -0.180116000     0.102282000
I       0.393808000    -0.559911000    -2.451370000
H       0.737769000     0.891573000     4.983896000
H       0.418483000    -1.212722000     6.270012000
H       1.503450000    -1.476798000     4.897745000
H      -0.177977000    -2.024552000     4.814572000
H      -2.075240000    -0.257987000     4.618842000
H      -1.470575000     0.550747000     6.072129000
H      -1.650976000     1.460543000     4.565753000
I      -1.065948000    -3.296586000    -1.070614000
I      -2.255383000    -5.527234000     0.070471000