16
energy: -26722331061807.261719 kJ/mol; low freq (cm^-1) (cm^-1) (cm^-1): 10.27, 21.04, 28.29
C      -0.055106000    -0.122771000     2.105113000
N      -0.055443000    -0.091940000     3.259887000
C      -0.106757000    -0.083135000     4.696983000
C      -1.119442000    -1.125577000     5.170654000
C      -0.417202000     1.330584000     5.186976000
Au     -0.047084000    -0.261798000     0.155705000
I      -0.033596000    -0.568425000    -2.406377000
H       0.893237000    -0.371241000     5.026211000
H      -1.117154000    -1.159855000     6.258666000
H      -0.872095000    -2.116023000     4.792942000
H      -2.122370000    -0.865509000     4.834430000
H      -1.404105000     1.645021000     4.849763000
H      -0.403406000     1.344189000     6.275311000
H       0.319039000     2.045450000     4.823641000
Br      0.266877000    -3.532580000    -1.371428000
Br      0.501061000    -5.769436000    -0.536325000