16
energy: -4194563.630000 kJ/mol; low freq (cm^-1): 9.01, 17.24, 29.54
C       0.343338000     0.022127000     1.894405000
N       0.250917000    -0.015421000     3.045117000
C      -0.098419000     0.012907000     4.440484000
C      -0.592832000    -1.368622000     4.864528000
C      -1.132081000     1.117044000     4.662412000
Au      0.307564000     0.194123000    -0.047470000
Br      0.164532000     0.448275000    -2.415681000
H       0.820552000     0.252958000     4.977654000
H      -0.817314000    -1.356161000     5.930069000
H       0.161429000    -2.130728000     4.676403000
H      -1.499989000    -1.629956000     4.320671000
H      -2.039931000     0.909389000     4.097503000
H      -0.745426000     2.084394000     4.347692000
H      -1.379648000     1.166001000     5.721966000
Br     -2.259769000     1.672677000     0.656966000
Br     -4.142101000     2.720477000     1.628903000