16
energy: -30482428381885.386719 kJ/mol; low freq (cm^-1) (cm^-1) (cm^-1): 3.79, 15.93, 31.4
C      -0.070515000     0.207416000     1.840208000
N      -0.068053000     0.126818000     2.992989000
C      -0.192770000    -0.137604000     4.400709000
C      -0.724941000    -1.558499000     4.586301000
C      -1.079800000     0.926688000     5.042936000
Au     -0.164436000     0.178722000    -0.102274000
Br     -0.328690000     0.060823000    -2.481995000
H       0.816260000    -0.066409000     4.810464000
H      -0.781241000    -1.783427000     5.650547000
H      -0.072639000    -2.286196000     4.107616000
H      -1.720328000    -1.652067000     4.153995000
H      -2.087093000     0.881619000     4.630109000
H      -0.677609000     1.924697000     4.877808000
H      -1.135368000     0.746773000     6.115581000
Cl     -1.553797000    -2.442023000     0.682450000
Cl     -2.439666000    -4.129844000     1.462169000