16
energy: -4194569.299000 kJ/mol; low freq (cm^-1): 5.17, 10.42, 32.33
C       0.136385000     0.057592000     4.273370000
N       0.040145000     0.054814000     5.424967000
C      -0.111416000    -0.013208000     6.852998000
C      -0.005970000    -1.470118000     7.301018000
C      -1.429649000     0.645158000     7.255715000
Au      0.289608000     0.004144000     2.341878000
Br      0.467732000    -0.132493000    -0.059819000
H       0.722134000     0.557236000     7.266831000
H      -0.070263000    -1.515340000     8.387253000
H       0.940312000    -1.908169000     6.989054000
H      -0.819951000    -2.058300000     6.878595000
H      -2.272633000     0.098957000     6.833699000
H      -1.473312000     1.677268000     6.912636000
H      -1.516837000     0.634908000     8.341220000
Br     -0.165036000    -3.057061000     0.466352000
Br     -0.654345000    -5.340543000     0.900648000