16
energy: -24530770129026.515625 kJ/mol; low freq (cm^-1) (cm^-1) (cm^-1): 2.81, 10.54, 30.64
C       0.140584000     0.277711000     4.271453000
N       0.072353000     0.173007000     5.420205000
C      -0.041704000    -0.000800000     6.842589000
C      -0.374464000    -1.460475000     7.147206000
C      -1.075594000     0.979500000     7.393259000
Au      0.284695000     0.396900000     2.341808000
Br      0.486999000     0.489660000    -0.062086000
H       0.942114000     0.240917000     7.248997000
H      -0.407372000    -1.601290000     8.226642000
H       0.377291000    -2.128384000     6.730923000
H      -1.346474000    -1.724197000     6.731630000
H      -2.061378000     0.764337000     6.982100000
H      -0.810364000     2.006657000     7.149471000
H      -1.121241000     0.879285000     8.476701000
I       1.915527000    -2.363353000     0.605217000
I       3.129853000    -4.765420000     1.200513000