16
energy: -25315054505355.660156 kJ/mol; low freq (cm^-1) (cm^-1) (cm^-1): 3.89, 12.48, 27.64
C       0.295529000    -0.091759000     1.874684000
N       0.221165000    -0.084675000     3.027356000
C      -0.087385000     0.013551000     4.429040000
C      -0.677102000    -1.310529000     4.910771000
C      -1.023849000     1.202797000     4.641975000
Au      0.256971000     0.008477000    -0.061322000
Cl      0.117742000     0.182750000    -2.313331000
H       0.861880000     0.195730000     4.935343000
H      -0.871010000    -1.246618000     5.980483000
H       0.009933000    -2.135395000     4.730254000
H      -1.616275000    -1.516222000     4.398426000
H      -1.963793000     1.047898000     4.114035000
H      -0.574563000     2.125103000     4.279169000
H      -1.230321000     1.307723000     5.706230000
I      -2.232550000     1.979643000     0.539692000
I      -4.221226000     3.525697000     1.623194000