16
energy: -4308348.050000 kJ/mol; low freq (cm^-1): 10.39, 13.25, 34.96
C      -0.061164000    -0.125194000     4.156479000
N      -0.048262000    -0.121728000     5.312430000
C      -0.104619000    -0.119346000     6.749590000
C      -0.741529000    -1.422071000     7.230457000
C      -0.841813000     1.132499000     7.222181000
Au     -0.116936000    -0.130783000     2.227364000
Cl     -0.221929000    -0.137675000    -0.056782000
H       0.932890000    -0.077538000     7.086605000
H      -0.733856000    -1.444730000     8.319048000
H      -0.187963000    -2.283585000     6.861044000
H      -1.772911000    -1.494663000     6.886839000
H      -1.875479000     1.122063000     6.877955000
H      -0.357150000     2.032336000     6.847347000
H      -0.836524000     1.162621000     8.310606000
Br     -3.157269000     0.102328000     0.157448000
Br     -5.502941000     0.289510000     0.345861000