10
energy: -3988163.718000 kJ/mol; low freq (cm^-1): 4.98, 11.74, 41.09
C      -0.009231000    -0.068602000     4.245043000
N      -0.006133000    -0.079928000     5.400546000
C      -0.002419000    -0.105755000     6.819481000
Au     -0.016790000    -0.074601000     2.307780000
Br     -0.029943000    -0.111698000    -0.100941000
H       0.514024000    -1.000551000     7.161854000
H       0.509788000     0.777959000     7.195311000
H      -1.028397000    -0.115216000     7.182613000
Br     -0.269845000    -3.121827000     0.230454000
Br     -0.452259000    -5.475061000     0.480353000