10
energy: -27491358300077.660156 kJ/mol; low freq (cm^-1) (cm^-1) (cm^-1): 13.38, 15.95, 26.44
C       0.004782000    -0.006840000     1.861076000
N       0.005211000    -0.061619000     3.014763000
C       0.007101000    -0.182494000     4.428668000
Au      0.003644000    -0.018194000    -0.087258000
Br      0.002152000    -0.079542000    -2.471975000
H      -0.148335000    -1.225742000     4.697580000
H       0.964751000     0.156988000     4.818629000
H      -0.793208000     0.426281000     4.844883000
Br     -0.005406000    -3.061597000     0.062092000
Br     -0.007387000    -5.358728000     0.604454000