10
energy: -29843963557450.449219 kJ/mol; low freq (cm^-1) (cm^-1) (cm^-1): 14.9, 34.08, 47.14
C       0.186705000    -0.096486000     4.229983000
N       0.094818000    -0.087511000     5.382544000
C      -0.019450000    -0.083343000     6.796774000
Au      0.334635000    -0.138502000     2.309753000
Cl      0.503411000    -0.220246000     0.039374000
H       0.855161000    -0.564897000     7.230676000
H      -0.084084000     0.944222000     7.150207000
H      -0.916705000    -0.626938000     7.087595000
Cl     -0.197714000    -3.134617000     0.215069000
Cl     -0.681003000    -5.123700000     0.404950000