10
energy: -23107964192525.265625 kJ/mol; low freq (cm^-1) (cm^-1) (cm^-1): 12.68, 29.66, 35.64
C      -0.203360000    -0.214678000     2.128643000
N      -0.064194000    -0.173150000     3.274651000
C       0.107431000    -0.126543000     4.681962000
Au     -0.419819000    -0.347779000     0.209737000
Br     -0.673814000    -0.566092000    -2.179320000
H       0.004657000     0.902323000     5.021635000
H      -0.650361000    -0.746692000     5.157017000
H       1.097858000    -0.499529000     4.936034000
I       0.248099000    -3.571568000    -1.223774000
I       1.034114000    -6.072552000    -0.382227000