10
energy: -4329443.490000 kJ/mol; low freq (cm^-1): 5.32, 20.08, 49.46
C      -0.035923000     0.036156000     1.825827000
N      -0.065200000     0.065181000     2.980627000
C      -0.129437000     0.128287000     4.396574000
Au     -0.020603000     0.021663000    -0.106552000
Cl     -0.003531000     0.005111000    -2.369074000
H      -0.062752000    -0.877460000     4.807081000
H      -1.073344000     0.582361000     4.692561000
H       0.697678000     0.729868000     4.768787000
Cl     -2.167589000     2.166251000     0.259812000
Cl     -3.604716000     3.600942000     0.579659000