10
energy: -3466039.077000 kJ/mol; low freq (cm^-1): 12.49, 20.48, 37.86
C      -0.037151000     0.003984000     2.152265000
N       0.060608000    -0.065811000     3.301630000
C       0.160790000    -0.145961000     4.715205000
Au     -0.230225000     0.148706000     0.240239000
Cl     -0.485017000     0.343925000    -2.024246000
H      -0.032930000    -1.168753000     5.032902000
H      -0.571464000     0.521652000     5.165532000
H       1.162126000     0.148943000     5.023264000
I      -2.779126000     2.379606000    -1.247849000
I      -4.752856000     4.141549000    -0.524993000