10
energy: -29059655446419.906250 kJ/mol; low freq (cm^-1) (cm^-1) (cm^-1): 14.13, 15.33, 44.25
C      -0.036476000    -0.008094000     2.192999000
N      -0.007090000     0.151445000     3.337633000
C       0.053522000     0.363405000     4.739495000
Au     -0.065273000    -0.298617000     0.278272000
Br     -0.085595000    -0.684489000    -2.093523000
H      -0.110589000    -0.581117000     5.254783000
H       1.033753000     0.757220000     5.001691000
H      -0.715427000     1.076483000     5.031089000
Cl      0.011108000    -3.617951000    -1.284809000
Cl      0.073676000    -5.615024000    -0.740680000