10
energy: -28275675574864.113281 kJ/mol; low freq (cm^-1) (cm^-1) (cm^-1): 8.78, 21.23, 32.99
C      -0.083009000    -0.029195000     1.840771000
N      -0.092887000     0.020245000     2.994528000
C      -0.138711000     0.118764000     4.409217000
Au     -0.112124000    -0.066546000    -0.095031000
Cl     -0.151574000    -0.110803000    -2.355077000
H       0.115769000    -0.844173000     4.847897000
H      -1.142856000     0.406779000     4.715127000
H       0.573915000     0.871513000     4.740982000
Br     -2.063724000     2.261699000     0.170427000
Br     -3.558379000     4.041926000     0.564015000