10
energy: -3034283.567000 kJ/mol; low freq (cm^-1): 12.29, 23.97, 36.19
C      -0.001375000    -0.010607000     2.116162000
N      -0.057206000    -0.027400000     3.270046000
C      -0.113483000    -0.043039000     4.688547000
Au      0.147675000     0.029805000     0.167961000
I       0.404083000     0.093775000    -2.399453000
H      -0.872469000    -0.753159000     5.011562000
H      -0.366400000     0.951971000     5.050095000
H       0.856216000    -0.338942000     5.084745000
I       3.450592000     0.935245000    -1.149788000
I       5.939056000     1.621899000    -0.141778000