10
energy: -3466039.049000 kJ/mol; low freq (cm^-1): 5.6, 11.7, 38.57
C      -0.031993000     0.026143000     4.120437000
N      -0.047895000     0.044010000     5.275788000
C      -0.078612000     0.077989000     6.694416000
Au     -0.030455000     0.021000000     2.193117000
Cl     -0.046942000     0.033512000    -0.093070000
H      -0.504074000    -0.851363000     7.068303000
H      -0.690391000     0.916985000     7.020592000
H       0.934447000     0.194871000     7.074600000
I      -2.260370000     2.263832000     0.183946000
I      -4.182595000     4.204327000     0.445134000