10
energy: -25299526945041.363281 kJ/mol; low freq (cm^-1) (cm^-1) (cm^-1): 4.22, 11.05, 37.75
C       0.017053000    -0.004632000     2.187599000
N      -0.089216000    -0.005895000     3.337975000
C      -0.200643000    -0.009215000     4.753298000
Au      0.242113000    -0.002372000     0.247428000
I       0.613049000     0.000156000    -2.303327000
H      -0.874667000    -0.806781000     5.059806000
H      -0.593334000     0.949720000     5.085928000
H       0.782704000    -0.173071000     5.189949000
Br      3.606681000     0.006362000    -1.320103000
Br      5.876618000     0.011058000    -0.547485000