10
energy: -3897691.506000 kJ/mol; low freq (cm^-1): 11.42, 11.87, 38.14
C      -0.017652000    -0.081782000     2.205553000
N      -0.151656000    -0.107149000     3.352892000
C      -0.302043000    -0.135380000     4.763510000
Au      0.243352000    -0.032495000     0.273191000
I       0.647524000     0.046694000    -2.266402000
H      -0.611307000    -1.132046000     5.072367000
H      -1.056895000     0.590527000     5.059436000
H       0.648895000     0.114090000     5.230252000
Cl      3.447246000     1.070947000    -1.375356000
Cl      5.331528000     1.754612000    -0.753085000