10
energy: -23107965423873.453125 kJ/mol; low freq (cm^-1) (cm^-1) (cm^-1): 12.41, 14.16, 37.26
C       0.006062000    -0.024819000     4.185626000
N       0.006029000    -0.095660000     5.338945000
C       0.006978000    -0.200483000     6.754425000
Au      0.006742000     0.050776000     2.249617000
Br      0.007782000     0.107013000    -0.161679000
H      -0.431370000    -1.153571000     7.044380000
H       1.030841000    -0.143412000     7.119101000
H      -0.577497000     0.614559000     7.177016000
I      -0.003789000    -3.113280000     0.376343000
I      -0.011653000    -5.828538000     0.841279000