10
energy: -4101942.597000 kJ/mol; low freq (cm^-1): 13.51, 14.91, 43.41
C      -0.052260000     0.046251000     4.123824000
N      -0.053044000     0.048800000     5.279547000
C      -0.060688000     0.065291000     6.698576000
Au     -0.078143000     0.068304000     2.197350000
Cl     -0.133508000     0.118796000    -0.086122000
H       0.063566000    -0.949283000     7.072477000
H      -1.008676000     0.469698000     7.048567000
H       0.756393000     0.688900000     7.056535000
Br     -2.215292000     2.218572000     0.175195000
Br     -3.865078000     3.887643000     0.417306000