10
energy: -4215668.184000 kJ/mol; low freq (cm^-1): 8.52, 14.12, 44.24
C       0.183237000    -0.099220000     4.256845000
N       0.091850000    -0.093375000     5.409255000
C      -0.022251000    -0.086564000     6.823864000
Au      0.334089000    -0.133785000     2.326183000
Br      0.516132000    -0.206692000    -0.069711000
H       0.852197000    -0.567206000     7.258551000
H      -0.086625000     0.941337000     7.175828000
H      -0.919415000    -0.629297000     7.115700000
Cl     -0.197929000    -3.134869000     0.216443000
Cl     -0.685323000    -5.139696000     0.411983000