10
energy: -20916075931840.074219 kJ/mol; low freq (cm^-1) (cm^-1) (cm^-1): 3.24, 12.75, 35.57
C      -0.006808000    -0.006335000     4.288670000
N       0.117379000     0.040997000     5.436283000
C       0.276843000     0.116958000     6.844698000
Au     -0.150494000    -0.053370000     2.341438000
I      -0.272280000    -0.078704000    -0.236319000
H       0.263433000    -0.887179000     7.264117000
H      -0.537757000     0.701149000     7.268478000
H       1.227363000     0.595578000     7.072764000
I       2.738406000     1.270214000     0.601866000
I       5.188022000     2.363929000     1.296864000