10
energy: -3670188.358000 kJ/mol; low freq (cm^-1): 10.15, 22.67, 37.37
C      -0.108047000     0.184953000     4.378354000
N       0.004186000     0.132285000     5.526846000
C       0.153381000     0.080945000     6.937371000
Au     -0.257555000     0.295489000     2.435104000
I      -0.389340000     0.479032000    -0.131335000
H       1.027001000    -0.518895000     7.185671000
H      -0.735157000    -0.367556000     7.377725000
H       0.282695000     1.091078000     7.321322000
Br      2.312425000     2.016467000     0.366640000
Br      4.368204000     3.181622000     0.771991000