10
energy: -26867762888765.132812 kJ/mol; low freq (cm^-1) (cm^-1) (cm^-1): 5.82, 11.62, 38.05
C       0.290255000    -0.096623000     4.415123000
N       0.149986000    -0.097620000     5.561999000
C      -0.025627000    -0.115414000     6.969841000
Au      0.518116000    -0.124234000     2.478241000
I       0.800048000    -0.212421000    -0.077149000
H       0.174229000     0.876535000     7.370385000
H       0.664648000    -0.833476000     7.408322000
H      -1.049327000    -0.404122000     7.200107000
Cl     -0.359929000    -3.077194000     0.290447000
Cl     -1.143161000    -5.007363000     0.545722000