17
energy: -3537608.092000 kJ/mol; low freq (cm^-1): 15.07, 20.33, 27.19
C       0.320636000     0.397938000     1.825607000
N       0.285139000     0.361742000     2.984090000
C       0.091923000     0.133723000     4.335081000
C      -0.775442000    -0.891127000     4.715623000
C      -0.973130000    -1.126718000     6.066879000
C      -0.316480000    -0.352953000     7.019060000
C       0.544677000     0.665100000     6.622943000
C       0.755935000     0.916886000     5.275489000
Au      0.084605000     0.101103000    -0.088943000
I      -0.561945000    -0.692925000    -2.460532000
H      -1.277511000    -1.482882000     3.963160000
H      -1.642376000    -1.917710000     6.373687000
H      -0.476141000    -0.543607000     8.070919000
H       1.053768000     1.265007000     7.363662000
H       1.420528000     1.702290000     4.947139000
I      -2.091034000    -2.484348000     0.116838000
I      -3.190826000    -3.762014000     2.318040000