17
energy: -4718993.304000 kJ/mol; low freq (cm^-1): 2.18, 10.15, 27.29
C       0.143938000    -0.262134000     4.292499000
N       0.090147000    -0.196806000     5.449414000
C       0.024756000    -0.133491000     6.828316000
C      -0.554989000    -1.187759000     7.532294000
C      -0.614087000    -1.117130000     8.915595000
C      -0.102146000    -0.010096000     9.584515000
C       0.472860000     1.035390000     8.869422000
C       0.540870000     0.982069000     7.485719000
Au      0.224687000    -0.380236000     2.365391000
Br      0.312821000    -0.544712000    -0.030426000
H      -0.947136000    -2.038483000     6.994951000
H      -1.061011000    -1.929010000     9.471289000
H      -0.151428000     0.037926000    10.663071000
H       0.870014000     1.895477000     9.389259000
H       0.983367000     1.783576000     6.912987000
Cl     -2.232351000    -2.171220000     0.227075000
Cl     -3.970147000    -3.288520000     0.382722000