17
energy: -26577487008042.964844 kJ/mol; low freq (cm^-1) (cm^-1) (cm^-1): 13.43, 17.88, 21.12
C       0.281069000     0.310158000     1.772354000
N       0.275445000     0.296131000     2.931735000
C       0.095602000     0.079644000     4.286335000
C      -0.779074000    -0.932004000     4.684247000
C      -0.966055000    -1.154968000     6.039068000
C      -0.291176000    -0.380933000     6.978310000
C       0.577541000     0.623833000     6.565207000
C       0.778176000     0.862226000     5.213634000
Au      0.066615000     0.086107000    -0.147436000
Br     -0.365285000    -0.374632000    -2.450052000
H      -1.293337000    -1.521677000     3.939090000
H      -1.641023000    -1.935693000     6.359324000
H      -0.442684000    -0.561044000     8.033216000
H       1.100543000     1.224085000     7.295883000
H       1.448099000     1.637455000     4.872153000
I      -1.959499000    -2.308268000     0.685722000
I      -3.291747000    -3.996317000     2.389678000