17
energy: -24385624870377.371094 kJ/mol; low freq (cm^-1) (cm^-1) (cm^-1): 6.82, 9.34, 23.01
C      -0.134394000    -0.166619000     4.327514000
N      -0.102646000    -0.114973000     5.485150000
C      -0.031848000    -0.023406000     6.862564000
C      -0.808106000    -0.875480000     7.645845000
C      -0.728393000    -0.773453000     9.026203000
C       0.113822000     0.165603000     9.612662000
C       0.882882000     1.009815000     8.818180000
C       0.816438000     0.922591000     7.436245000
Au     -0.125424000    -0.178894000     2.379063000
I      -0.046385000    -0.115753000    -0.199557000
H      -1.455854000    -1.597693000     7.171402000
H      -1.325468000    -1.428762000     9.644060000
H       0.170822000     0.239598000    10.689385000
H       1.536809000     1.739212000     9.274241000
H       1.404748000     1.569044000     6.801905000
I       1.969188000     2.377899000     0.962533000
I       3.591162000     4.407935000     1.925385000