17
energy: -31745263895767.085938 kJ/mol; low freq (cm^-1) (cm^-1) (cm^-1): 5.17, 8.12, 28.15
C      -0.029275000     0.083324000     4.148607000
N      -0.017275000     0.048063000     5.307699000
C       0.012924000     0.025145000     6.689289000
C      -0.724506000    -0.939837000     7.373174000
C      -0.686646000    -0.953831000     8.759041000
C       0.076316000    -0.017884000     9.449635000
C       0.807512000     0.939624000     8.754178000
C       0.781864000     0.969001000     7.368387000
Au     -0.020667000     0.163561000     2.227442000
Cl      0.013833000     0.280419000    -0.053427000
H      -1.310725000    -1.657967000     6.819207000
H      -1.254425000    -1.697478000     9.299701000
H       0.101227000    -0.034739000    10.529971000
H       1.400372000     1.666349000     9.290889000
H       1.343012000     1.703905000     6.810434000
Br      2.294548000     2.161554000     0.207555000
Br      4.101963000     3.659275000     0.435822000