17
energy: -4401016.670000 kJ/mol; low freq (cm^-1): 5.32, 9.1, 23.59
C       0.080892000    -0.091435000     4.436098000
N       0.039374000    -0.070795000     5.594832000
C      -0.016288000    -0.062161000     6.975859000
C      -0.729968000    -1.062234000     7.634411000
C      -0.780961000    -1.046314000     9.019728000
C      -0.128979000    -0.046868000     9.734694000
C       0.579399000     0.945060000     9.064358000
C       0.641375000     0.945484000     7.679357000
Au      0.128055000    -0.147004000     2.489085000
I       0.145746000    -0.261690000    -0.080036000
H      -1.229838000    -1.829077000     7.061379000
H      -1.331511000    -1.816403000     9.540795000
H      -0.173204000    -0.040889000    10.814527000
H       1.085534000     1.721309000     9.620197000
H       1.185901000     1.706805000     7.140729000
Cl     -2.134295000    -2.322068000     0.403020000
Cl     -3.671952000    -3.711475000     0.733748000