17
energy: -4401010.080000 kJ/mol; low freq (cm^-1): 15.09, 20.7, 22.26
C       0.157976000     0.211334000     1.780234000
N       0.152554000     0.211401000     2.939786000
C       0.021817000     0.059626000     4.307574000
C      -0.840809000    -0.925179000     4.789695000
C      -0.974642000    -1.080668000     6.160425000
C      -0.259018000    -0.266831000     7.033363000
C       0.597511000     0.710299000     6.537184000
C       0.744610000     0.881476000     5.168796000
Au      0.002247000     0.010889000    -0.159445000
I      -0.312045000    -0.386280000    -2.663655000
H      -1.385914000    -1.546716000     4.094214000
H      -1.639612000    -1.839967000     6.546503000
H      -0.369001000    -0.394563000     8.100965000
H       1.152913000     1.341421000     7.216131000
H       1.404391000     1.634382000     4.763634000
Cl     -1.834719000    -2.227705000     0.864031000
Cl     -2.928979000    -3.582674000     1.969307000