17
energy: -30960957619568.105469 kJ/mol; low freq (cm^-1) (cm^-1) (cm^-1): 5.58, 8.2, 26.01
C      -0.001173000    -0.014599000     4.260475000
N      -0.003426000    -0.019146000     5.419992000
C      -0.021919000    -0.048937000     6.801795000
C      -0.824014000    -0.986771000     7.450230000
C      -0.837428000    -1.011597000     8.836239000
C      -0.061584000    -0.113432000     9.561885000
C       0.734000000     0.817210000     8.901584000
C       0.760296000     0.856984000     7.515944000
Au     -0.026209000    -0.037515000     2.327604000
Br     -0.087115000    -0.102220000    -0.079962000
H      -1.419013000    -1.675532000     6.868964000
H      -1.455428000    -1.734347000     9.349431000
H      -0.077071000    -0.138733000    10.642236000
H       1.336427000     1.514627000     9.465849000
H       1.371530000     1.571820000     6.985235000
Br     -2.017778000    -2.412299000     0.347843000
Br     -3.527313000    -4.213986000     0.678747000