17
energy: -4832773.258000 kJ/mol; low freq (cm^-1): 3.59, 10.41, 31.29
C      -0.074261000     0.210024000     4.169200000
N      -0.043655000     0.139966000     5.326897000
C      -0.000684000     0.067891000     6.706131000
C      -0.631459000    -0.992428000     7.354835000
C      -0.583672000    -1.055146000     8.739027000
C       0.084149000    -0.073174000     9.463407000
C       0.709757000     0.979376000     8.803271000
C       0.672387000     1.058451000     7.419649000
Au     -0.113537000     0.336922000     2.251664000
Cl     -0.147738000     0.499676000    -0.020420000
H      -1.144847000    -1.745135000     6.775083000
H      -1.069326000    -1.872938000     9.251956000
H       0.117258000    -0.128301000    10.542249000
H       1.228764000     1.742023000     9.366049000
H       1.152013000     1.867614000     6.889100000
Cl      2.387467000     2.043924000     0.131657000
Cl      4.141304000     3.113607000     0.247848000