17
energy: -28769073855115.687500 kJ/mol; low freq (cm^-1) (cm^-1) (cm^-1): 6.77, 7.83, 23.57
C      -0.113704000    -0.087404000     4.370561000
N      -0.095679000    -0.067881000     5.529501000
C      -0.043156000    -0.013994000     6.909848000
C      -0.792577000    -0.918900000     7.659292000
C      -0.730169000    -0.854953000     9.042868000
C       0.068509000     0.098542000     9.665803000
C       0.811067000     0.995667000     8.904829000
C       0.761334000     0.947045000     7.520336000
Au     -0.090046000    -0.060343000     2.422745000
I       0.019823000     0.061485000    -0.150468000
H      -1.406551000    -1.651709000     7.157025000
H      -1.306599000    -1.551442000     9.634727000
H       0.112505000     0.142403000    10.744774000
H       1.431517000     1.736040000     9.389107000
H       1.330268000     1.634216000     6.911690000
Br      2.011879000     2.357290000     0.724896000
Br      3.509365000     4.093177000     1.425247000