17
energy: -28769045997726.757812 kJ/mol; low freq (cm^-1) (cm^-1) (cm^-1): 9.06, 20.72, 27.45
C       0.331833000     0.344596000     1.838766000
N       0.290280000     0.344047000     2.997720000
C       0.107687000     0.135070000     4.353000000
C      -0.738123000    -0.900302000     4.753840000
C      -0.925493000    -1.116851000     6.109880000
C      -0.281523000    -0.313329000     7.046121000
C       0.556457000     0.715708000     6.629535000
C       0.757513000     0.948647000     5.277172000
Au      0.064358000     0.014310000    -0.063176000
I      -0.677807000    -0.833814000    -2.386762000
H      -1.231247000    -1.511241000     4.010157000
H      -1.577199000    -1.915380000     6.434444000
H      -0.433577000    -0.489293000     8.101650000
H       1.054962000     1.339174000     7.357887000
H       1.403652000     1.742463000     4.932627000
Br     -2.119599000    -2.424051000     0.069552000
Br     -3.080278000    -3.492821000     1.986331000