17
energy: -26577512907183.578125 kJ/mol; low freq (cm^-1) (cm^-1) (cm^-1): 5.36, 7.78, 25.48
C       0.164790000    -0.015839000     4.204994000
N       0.108633000    -0.021141000     5.363070000
C       0.022000000    -0.066871000     6.741820000
C      -0.672487000    -1.115440000     7.343270000
C      -0.754852000    -1.156867000     8.726471000
C      -0.153182000    -0.165892000     9.495405000
C       0.535750000     0.875076000     8.881629000
C       0.628902000     0.933025000     7.499492000
Au      0.206598000    -0.059660000     2.272654000
Br      0.214571000    -0.166646000    -0.137489000
H      -1.133306000    -1.874488000     6.728627000
H      -1.290422000    -1.965107000     9.203514000
H      -0.221521000    -0.204874000    10.573299000
H       1.002379000     1.644787000     9.479534000
H       1.159099000     1.733030000     7.004401000
I      -2.128916000    -2.308152000     0.633515000
I      -4.094823000    -4.110839000     1.319884000