17
energy: -4605264.154000 kJ/mol; low freq (cm^-1): 13.1, 20.75, 34.44
C      -0.129685000    -0.229873000     1.752439000
N      -0.156131000    -0.241058000     2.911070000
C      -0.029833000    -0.090881000     4.279894000
C      -0.821675000    -0.850452000     5.137190000
C      -0.677016000    -0.681144000     6.506088000
C       0.244985000     0.232643000     7.005663000
C       1.029162000     0.984620000     6.136048000
C       0.899003000     0.830241000     4.764888000
Au      0.046646000    -0.067282000    -0.164878000
Cl      0.310231000     0.184400000    -2.395719000
H      -1.531744000    -1.554456000     4.729110000
H      -1.285573000    -1.263924000     7.182645000
H       0.352620000     0.359322000     8.073639000
H       1.745072000     1.694607000     6.524805000
H       1.496289000     1.404217000     4.071266000
Br      2.009079000     2.084443000     0.870260000
Br      3.388623000     3.603061000     2.030197000