17
energy: -27361799845637.335938 kJ/mol; low freq (cm^-1) (cm^-1) (cm^-1): 7.64, 20.33, 27.35
C      -0.195831000    -0.262521000     1.759690000
N      -0.205510000    -0.264501000     2.918742000
C      -0.052416000    -0.102163000     4.283639000
C      -0.820655000    -0.860604000     5.163082000
C      -0.648706000    -0.679192000     6.527242000
C       0.276482000     0.245605000     7.000134000
C       1.036781000     0.996299000     6.108490000
C       0.879353000     0.829573000     4.741648000
Au     -0.037074000    -0.107775000    -0.160412000
Cl      0.227817000     0.156544000    -2.390479000
H      -1.533447000    -1.573337000     4.775384000
H      -1.238367000    -1.261179000     7.220998000
H       0.405292000     0.381657000     8.064611000
H       1.755335000     1.714736000     6.476213000
H       1.457838000     1.401549000     4.030624000
I       2.113936000     2.162519000     0.767992000
I       3.743765000     3.895815000     2.127008000