17
energy: -27361822443938.175781 kJ/mol; low freq (cm^-1) (cm^-1) (cm^-1): 5.53, 7.45, 26.44
C      -0.102985000     0.056694000     4.121147000
N      -0.067333000     0.028114000     5.279796000
C      -0.005123000     0.022255000     6.660540000
C      -0.677998000    -0.970288000     7.370886000
C      -0.609453000    -0.965797000     8.755640000
C       0.120131000     0.015519000     9.418762000
C       0.787269000     0.999905000     8.696909000
C       0.730244000     1.011394000     7.311792000
Au     -0.127780000     0.134526000     2.199696000
Cl     -0.128809000     0.255783000    -0.083648000
H      -1.239106000    -1.723411000     6.837785000
H      -1.127199000    -1.730415000     9.316868000
H       0.169058000     0.013065000    10.498408000
H       1.354356000     1.761716000     9.212382000
H       1.241619000     1.766561000     6.733447000
I       2.351145000     2.168983000     0.339034000
I       4.496556000     3.828421000     0.748158000