17
energy: -4718989.156000 kJ/mol; low freq (cm^-1): 12.51, 20.1, 25.07
C       0.141196000     0.145372000     1.766134000
N       0.143186000     0.146763000     2.925705000
C       0.029239000     0.011367000     4.296274000
C      -0.820956000    -0.971630000     4.803002000
C      -0.937062000    -1.108581000     6.177416000
C      -0.216194000    -0.277998000     7.029942000
C       0.627847000     0.697360000     6.509425000
C       0.757184000     0.849793000     5.137136000
Au      0.023193000     0.008639000    -0.163465000
Br     -0.180518000    -0.227344000    -2.529174000
H      -1.370871000    -1.605847000     4.123055000
H      -1.592444000    -1.866343000     6.582459000
H      -0.312395000    -0.391157000     8.100499000
H       1.187284000     1.341833000     7.172322000
H       1.406903000     1.601005000     4.713019000
Cl     -1.853941000    -2.248342000     0.902645000
Cl     -3.001487000    -3.630051000     1.902075000