17
energy: -4832770.501000 kJ/mol; low freq (cm^-1): 16.78, 20.98, 30.71
C      -0.130297000    -0.175813000     1.736575000
N      -0.139225000    -0.187209000     2.896220000
C      -0.016512000    -0.063382000     4.267313000
C      -0.793615000    -0.858063000     5.106664000
C      -0.654048000    -0.717820000     6.479328000
C       0.248417000     0.202529000     7.001950000
C       1.018008000     0.989860000     6.151033000
C       0.892605000     0.864244000     4.776381000
Au     -0.006929000    -0.045442000    -0.182059000
Cl      0.188641000     0.159497000    -2.426886000
H      -1.488527000    -1.566858000     4.681177000
H      -1.251329000    -1.328704000     7.141016000
H       0.352245000     0.306496000     8.072739000
H       1.718998000     1.704939000     6.557351000
H       1.480079000     1.465682000     4.098284000
Cl      2.032516000     2.083887000     0.995167000
Cl      3.232894000     3.358509000     2.062352000