17
energy: -4491483.536000 kJ/mol; low freq (cm^-1): 14.36, 20.93, 28.15
C       0.195157000     0.229116000     1.770518000
N       0.211684000     0.236702000     2.929500000
C       0.067486000     0.057310000     4.293530000
C      -0.798864000    -0.940252000     4.742012000
C      -0.949740000    -1.125875000     6.107034000
C      -0.247407000    -0.329406000     7.006524000
C       0.612876000     0.660469000     6.543155000
C       0.777280000     0.862026000     5.180717000
Au     -0.004125000     0.011734000    -0.151598000
Br     -0.348841000    -0.372694000    -2.479635000
H      -1.333741000    -1.547253000     4.025866000
H      -1.617877000    -1.895031000     6.467186000
H      -0.370811000    -0.480692000     8.069588000
H       1.157577000     1.277811000     7.243096000
H       1.440254000     1.625336000     4.801012000
Br     -1.835198000    -2.226110000     0.838530000
Br     -3.112926000    -3.791665000     2.061436000