19
energy: -4525276.620000 kJ/mol; low freq (cm^-1): 2.37, 12.59, 33.73
C       0.154493000    -0.293626000     4.303285000
N       0.084177000    -0.190832000     5.452762000
C      -0.017733000    -0.067064000     6.891786000
C       0.393268000    -1.412314000     7.501485000
C       0.930598000     1.055928000     7.327133000
C      -1.475395000     0.273217000     7.223472000
Au      0.245962000    -0.476596000     2.374590000
Br      0.322513000    -0.717686000    -0.019414000
H       0.326381000    -1.351146000     8.587499000
H       1.416870000    -1.662545000     7.228068000
H      -0.263505000    -2.208543000     7.155558000
H       0.875942000     1.174547000     8.409035000
H       0.652542000     1.998105000     6.857992000
H       1.957545000     0.820658000     7.052937000
H      -2.143171000    -0.512779000     6.875284000
H      -1.585429000     0.372771000     8.303138000
H      -1.768425000     1.210837000     6.754422000
Cl     -2.478114000    -1.810231000     0.284887000
Cl     -4.402059000    -2.557327000     0.502950000