19
energy: -27433739502088.816406 kJ/mol; low freq (cm^-1) (cm^-1) (cm^-1): 4.16, 9.15, 28.52
C      -0.194234000    -0.053117000     4.433958000
N      -0.122541000    -0.026426000     5.586837000
C      -0.029158000     0.031596000     7.031457000
C       0.302184000    -1.379726000     7.529377000
C      -1.386671000     0.507291000     7.561632000
C       1.085762000     1.024368000     7.380669000
Au     -0.304718000    -0.043305000     2.481661000
I      -0.432051000     0.059640000    -0.092992000
H       0.378827000    -1.368771000     8.616342000
H       1.249508000    -1.721591000     7.116080000
H      -0.477381000    -2.082930000     7.241380000
H      -2.176537000    -0.184706000     7.274649000
H      -1.348484000     0.562673000     8.649309000
H      -1.628805000     1.493663000     7.170040000
H       1.180317000     1.091957000     8.464249000
H       0.858256000     2.013514000     6.987389000
H       2.037651000     0.696498000     6.966701000
Br      0.221486000     3.065954000     0.536900000
Br      0.720087000     5.360713000     1.034460000