19
energy: -3343892.809000 kJ/mol; low freq (cm^-1): 1.85, 7.96, 26.15
C      -0.077109000    -0.008672000     2.031644000
N      -0.065440000     0.024662000     3.186195000
C      -0.050698000     0.018287000     4.633370000
C      -0.360314000    -1.411784000     5.089515000
C      -1.123594000     1.000979000     5.113630000
C       1.346786000     0.455937000     5.084432000
Au     -0.089296000    -0.154645000     0.082380000
I      -0.096715000    -0.446273000    -2.482977000
H      -0.353044000    -1.447533000     6.178072000
H       0.386567000    -2.108483000     4.712534000
H      -1.341224000    -1.726489000     4.737006000
H      -2.108659000     0.701496000     4.759222000
H      -1.134451000     1.012366000     6.202607000
H      -0.913600000     2.008324000     4.757328000
H       1.384894000     0.459021000     6.172873000
H       1.573142000     1.458799000     4.725541000
H       2.105733000    -0.230021000     4.711631000
I       0.266082000    -3.552678000    -1.185171000
I       0.565265000    -6.103297000    -0.132283000