19
energy: -26026486099299.656250 kJ/mol; low freq (cm^-1) (cm^-1) (cm^-1): 8.95, 18.55, 30.55
C      -0.163891000     0.072112000     2.055521000
N      -0.073841000     0.066141000     3.207316000
C       0.042278000     0.029911000     4.649286000
C      -0.524210000    -1.313712000     5.123202000
C       1.529542000     0.160909000     4.997778000
C      -0.766889000     1.205049000     5.209862000
Au     -0.298358000     0.037773000     0.130637000
Cl     -0.444582000    -0.042380000    -2.153167000
H      -0.448368000    -1.371952000     6.207766000
H       0.032453000    -2.143966000     4.691647000
H      -1.571606000    -1.414392000     4.843248000
H       1.647204000     0.135258000     6.079887000
H       1.934471000     1.101530000     4.627821000
H       2.103160000    -0.658426000     4.567524000
H      -1.815683000     1.124091000     4.928650000
H      -0.379970000     2.154199000     4.842368000
H      -0.698820000     1.201185000     6.296467000
I       0.702771000    -2.952719000    -1.834090000
I       1.702051000    -5.491316000    -1.523414000