19
energy: -3661864.468000 kJ/mol; low freq (cm^-1): 3.02, 14.08, 17.3
C       0.146639000     0.348363000     1.847046000
N       0.102158000     0.279532000     2.999263000
C       0.030341000    -0.046684000     4.408797000
C       0.024781000    -1.576999000     4.510006000
C       1.260239000     0.555640000     5.093927000
C      -1.265497000     0.553705000     4.961818000
Au      0.177402000     0.157375000    -0.094497000
Br      0.185849000    -0.303450000    -2.439885000
H      -0.034284000    -1.863898000     5.559157000
H       0.933023000    -1.997489000     4.082089000
H      -0.828463000    -1.998719000     3.981997000
H       1.231499000     0.314073000     6.155483000
H       1.273756000     1.639088000     4.984429000
H       2.176513000     0.148060000     4.669771000
H      -2.131781000     0.142457000     4.446162000
H      -1.345342000     0.313684000     6.021139000
H      -1.270665000     1.636911000     4.849563000
I      -0.218894000    -2.992020000     0.456475000
I      -0.538521000    -5.300149000     1.908655000