19
energy: -27433739165684.414062 kJ/mol; low freq (cm^-1) (cm^-1) (cm^-1): 1.16, 10.28, 28.64
C      -0.102486000    -0.013664000     2.062372000
N      -0.083098000     0.034159000     3.216627000
C      -0.062512000     0.044645000     4.665182000
C      -0.795452000    -1.215161000     5.141449000
C      -0.778461000     1.317727000     5.129793000
C       1.405988000     0.036558000     5.104994000
Au     -0.143141000    -0.185843000     0.115345000
I      -0.208192000    -0.543880000    -2.440178000
H      -0.795481000    -1.240979000     6.230916000
H      -0.302083000    -2.111556000     4.770133000
H      -1.826254000    -1.216639000     4.791627000
H      -1.808829000     1.330190000     4.778676000
H      -0.780335000     1.351992000     6.218972000
H      -0.271591000     2.204707000     4.753535000
H       1.455354000     0.041916000     6.193600000
H       1.926574000     0.914995000     4.727468000
H       1.913098000    -0.853576000     4.736948000
Br     -0.542209000    -3.478707000    -1.344166000
Br     -0.791678000    -5.699815000    -0.469238000