19
energy: -29001925384258.191406 kJ/mol; low freq (cm^-1) (cm^-1) (cm^-1): 4.89, 19.73, 25.07
C       0.022489000     0.243746000     1.834627000
N       0.008413000     0.193740000     2.988726000
C      -0.000020000    -0.058763000     4.413736000
C      -0.168443000    -1.571973000     4.597450000
C      -1.175851000     0.712197000     5.020833000
C       1.336862000     0.427025000     4.982093000
Au      0.045719000     0.071950000    -0.120925000
I       0.076767000    -0.308359000    -2.649417000
H      -0.176708000    -1.803141000     5.661927000
H       0.650253000    -2.113226000     4.126618000
H      -1.103534000    -1.913557000     4.157106000
H      -2.118830000     0.381938000     4.587899000
H      -1.204489000     0.532393000     6.094609000
H      -1.067346000     1.782337000     4.850337000
H       1.357594000     0.239348000     6.054736000
H       1.464839000     1.495277000     4.813368000
H       2.168096000    -0.103289000     4.520115000
Cl     -0.061297000    -2.852145000     0.737091000
Cl     -0.130542000    -4.661463000     1.730136000