19
energy: -3343892.798000 kJ/mol; low freq (cm^-1): 2.06, 9.82, 28.01
C       0.147576000    -0.083299000     4.383253000
N       0.065471000    -0.054035000     5.535354000
C      -0.076555000     0.004757000     6.975803000
C      -0.203614000    -1.434768000     7.487069000
C      -1.340347000     0.818822000     7.277770000
C       1.176278000     0.688052000     7.535316000
Au      0.202748000    -0.099045000     2.428687000
I       0.179625000    -0.083267000    -0.154357000
H      -0.313192000    -1.422766000     8.571236000
H       0.681956000    -2.014405000     7.232075000
H      -1.075385000    -1.921849000     7.053720000
H      -2.217536000     0.345594000     6.840272000
H      -1.477964000     0.882154000     8.356999000
H      -1.254402000     1.826950000     6.876363000
H       1.098281000     0.749596000     8.620485000
H       1.276537000     1.695378000     7.134924000
H       2.070569000     0.121681000     7.280900000
I      -2.857886000     1.038955000     0.856722000
I      -5.343251000     1.946257000     1.692061000