19
energy: -3775644.363000 kJ/mol; low freq (cm^-1): 11.28, 18.15, 27.2
C      -0.240678000     0.017511000     1.838544000
N      -0.192714000     0.007974000     2.992397000
C       0.060172000    -0.003910000     4.418329000
C      -0.246091000    -1.415916000     4.929563000
C       1.539606000     0.353093000     4.610704000
C      -0.859284000     1.037438000     5.064300000
Au     -0.135060000     0.032621000    -0.098898000
Cl      0.078262000     0.049765000    -2.352654000
H      -0.063411000    -1.458201000     6.002013000
H       0.391385000    -2.150770000     4.440599000
H      -1.286502000    -1.679546000     4.745198000
H       1.777495000     0.339882000     5.673179000
H       1.753369000     1.345597000     4.217793000
H       2.182196000    -0.360919000     4.098659000
H      -1.906241000     0.793806000     4.889478000
H      -0.661712000     2.030416000     4.663510000
H      -0.683689000     1.057418000     6.138528000
I       3.025757000    -0.014214000     0.533322000
I       5.559252000    -0.062146000     1.584741000