19
energy: -4207300.198000 kJ/mol; low freq (cm^-1): 0.99, 11.06, 29.01
C       0.039540000    -0.033236000     4.452997000
N       0.014199000    -0.033492000     5.608528000
C      -0.033483000    -0.047397000     7.056046000
C      -0.308947000    -1.490752000     7.493511000
C      -1.164436000     0.892622000     7.489184000
C       1.326185000     0.441683000     7.567756000
Au      0.052384000    -0.058825000     2.497557000
I       0.016613000    -0.138861000    -0.076346000
H      -0.351828000    -1.534965000     8.581544000
H       0.480670000    -2.155497000     7.147657000
H      -1.258252000    -1.840600000     7.091866000
H      -2.119001000     0.557109000     7.087728000
H      -1.227035000     0.902957000     8.577092000
H      -0.977526000     1.906794000     7.140435000
H       1.321533000     0.442190000     8.657471000
H       1.528178000     1.452939000     7.218924000
H       2.125463000    -0.211745000     7.222390000
Cl     -2.261311000    -2.176867000     0.408783000
Cl     -3.809402000    -3.559554000     0.747955000