19
energy: -31978156760270.925781 kJ/mol; low freq (cm^-1) (cm^-1) (cm^-1): 5.45, 14.17, 37.74
C      -0.150103000     0.105535000     1.813787000
N      -0.125210000     0.071527000     2.968334000
C       0.079967000     0.025075000     4.399649000
C       0.037789000    -1.445997000     4.826138000
C       1.455188000     0.643944000     4.676906000
C      -1.040579000     0.829769000     5.064248000
Au     -0.047566000     0.159230000    -0.116975000
Cl      0.123798000     0.225676000    -2.374544000
H       0.196143000    -1.510149000     5.901829000
H       0.818788000    -2.014908000     4.324347000
H      -0.927725000    -1.890565000     4.589537000
H       1.651210000     0.613058000     5.747943000
H       1.485192000     1.680842000     4.346078000
H       2.238192000     0.091866000     4.159902000
H      -2.014734000     0.401153000     4.833420000
H      -1.024742000     1.865294000     4.727769000
H      -0.900693000     0.813178000     6.144199000
Cl      2.894045000    -0.138208000     0.783147000
Cl      4.794095000    -0.336353000     1.546142000