19
energy: -30409926900095.546875 kJ/mol; low freq (cm^-1) (cm^-1) (cm^-1): 2.52, 10.43, 33.89
C      -0.005073000    -0.092779000     4.176025000
N       0.014139000    -0.051749000     5.331032000
C       0.053159000    -0.009172000     6.778094000
C      -0.509184000    -1.338630000     7.294517000
C       1.516984000     0.176709000     7.194387000
C      -0.810099000     1.174735000     7.228557000
Au     -0.013428000    -0.179605000     2.248252000
Cl     -0.000382000    -0.301128000    -0.035852000
H      -0.492565000    -1.337618000     8.384177000
H       0.089293000    -2.174750000     6.937179000
H      -1.536003000    -1.478209000     6.960950000
H       1.580452000     0.211973000     8.281755000
H       1.917263000     1.105083000     6.790743000
H       2.127564000    -0.649960000     6.835602000
H      -1.838702000     1.050627000     6.894294000
H      -0.423374000     2.108883000     6.824912000
H      -0.800729000     1.233614000     8.316649000
Br      2.286515000    -2.156274000     0.156338000
Br      4.110863000    -3.645708000     0.325241000