19
energy: -4639056.345000 kJ/mol; low freq (cm^-1): 5.6, 11.84, 36.43
C       0.000148000    -0.175787000     4.180505000
N       0.011315000    -0.114994000     5.334997000
C       0.044146000    -0.042669000     6.779666000
C      -0.161487000    -1.462921000     7.317137000
C       1.414917000     0.513021000     7.180406000
C      -1.088050000     0.890530000     7.221537000
Au      0.000238000    -0.285236000     2.253487000
Cl      0.020724000    -0.424409000    -0.024278000
H      -0.141162000    -1.441892000     8.405729000
H       0.628568000    -2.125413000     6.966910000
H      -1.122002000    -1.861794000     6.994363000
H       1.473608000     0.579376000     8.265741000
H       1.564573000     1.507186000     6.762156000
H       2.212554000    -0.138866000     6.827672000
H      -2.053837000     0.504617000     6.898667000
H      -0.951505000     1.886928000     6.803932000
H      -1.088591000     0.965495000     8.307928000
Cl      2.806060000    -1.403687000     0.154662000
Cl      4.744485000    -2.083943000     0.304502000