19
energy: -31193834121494.902344 kJ/mol; low freq (cm^-1) (cm^-1) (cm^-1): 5.96, 15.92, 30.89
C      -0.091006000     0.207296000     1.825208000
N      -0.087550000     0.174064000     2.980345000
C      -0.107073000    -0.038896000     4.412773000
C      -0.799878000    -1.385987000     4.655078000
C       1.347335000    -0.064604000     4.896068000
C      -0.886829000     1.116514000     5.048623000
Au     -0.121190000     0.089763000    -0.117463000
Br     -0.172042000    -0.132219000    -2.496035000
H      -0.821954000    -1.592341000     5.725083000
H      -0.266305000    -2.189896000     4.151517000
H      -1.821764000    -1.365285000     4.280775000
H       1.365828000    -0.228017000     5.973396000
H       1.843470000     0.879575000     4.677668000
H       1.898638000    -0.868328000     4.411233000
H      -1.906204000     1.148401000     4.667745000
H      -0.922231000     0.976873000     6.128835000
H      -0.405877000     2.069859000     4.835821000
Cl     -0.398688000    -2.841060000     0.756693000
Cl     -0.584255000    -4.707690000     1.607582000