19
energy: -29625621176294.070312 kJ/mol; low freq (cm^-1) (cm^-1) (cm^-1): 3.96, 10.13, 31.7
C      -0.001679000    -0.056904000     4.296481000
N      -0.010202000    -0.044765000     5.452097000
C      -0.035774000    -0.047115000     6.900425000
C      -0.472414000    -1.446393000     7.349801000
C       1.380269000     0.279864000     7.387927000
C      -1.040694000     1.021246000     7.346431000
Au     -0.011909000    -0.098299000     2.356714000
Br     -0.054698000    -0.174000000    -0.053615000
H      -0.502452000    -1.481673000     8.438587000
H       0.227503000    -2.200801000     6.994845000
H      -1.462806000    -1.682957000     6.965053000
H       1.393474000     0.284155000     8.477578000
H       1.694255000     1.259290000     7.031139000
H       2.091254000    -0.464240000     7.033090000
H      -2.034714000     0.799425000     6.962179000
H      -1.083735000     1.042484000     8.435155000
H      -0.741225000     2.005154000     6.989575000
Br     -2.599476000    -1.770392000     0.252948000
Br     -4.606166000    -3.024691000     0.477950000