19
energy: -4411547.521000 kJ/mol; low freq (cm^-1): 2.52, 13.46, 37.8
C      -0.181958000     0.110155000     1.823081000
N      -0.157886000     0.077532000     2.976990000
C       0.077207000     0.026781000     4.404780000
C       0.057675000    -1.446988000     4.822918000
C       1.452928000     0.656608000     4.653598000
C      -1.036304000     0.818088000     5.096028000
Au     -0.047287000     0.156956000    -0.110578000
Cl      0.166742000     0.212530000    -2.362585000
H       0.238348000    -1.515151000     5.894815000
H       0.834444000    -2.004967000     4.302685000
H      -0.907998000    -1.899935000     4.603425000
H       1.673851000     0.619123000     5.719552000
H       1.465296000     1.696324000     4.330572000
H       2.229017000     0.116900000     4.113577000
H      -2.011323000     0.381655000     4.884073000
H      -1.036677000     1.855321000     4.764484000
H      -0.873417000     0.797766000     6.172632000
Br      2.887133000    -0.128485000     0.683271000
Br      5.064144000    -0.361634000     1.565420000