19
energy: -29625581730717.292969 kJ/mol; low freq (cm^-1) (cm^-1) (cm^-1): 5.18, 9.99, 29.59
C       0.259637000     0.137636000     1.853860000
N       0.168445000     0.121346000     3.004652000
C       0.070624000    -0.055991000     4.437746000
C       0.196464000    -1.559290000     4.712184000
C       1.213206000     0.730893000     5.086175000
C      -1.295515000     0.477906000     4.879928000
Au      0.356737000    -0.011262000    -0.088216000
Br      0.461545000    -0.257379000    -2.460232000
H       0.114475000    -1.733659000     5.784281000
H       1.158911000    -1.935105000     4.369073000
H      -0.591716000    -2.112400000     4.204318000
H       1.162128000     0.608260000     6.167126000
H       1.134723000     1.791711000     4.852721000
H       2.179028000     0.365957000     4.740211000
H      -2.099741000    -0.067590000     4.388902000
H      -1.396019000     0.351325000     5.956945000
H      -1.393332000     1.536416000     4.643438000
Br     -0.522701000    -2.840508000     0.557241000
Br     -1.230744000    -4.949424000     1.359460000