19
energy: -25242177387425.855469 kJ/mol; low freq (cm^-1) (cm^-1) (cm^-1): 8.56, 15.89, 29.1
C      -0.338473000     0.004118000     4.269759000
N      -0.219361000    -0.017844000     5.418609000
C      -0.072514000    -0.076307000     6.857094000
C      -0.292432000    -1.532469000     7.283293000
C       1.345488000     0.395440000     7.198262000
C      -1.129947000     0.849468000     7.468847000
Au     -0.524634000    -0.011143000     2.338987000
Br     -0.741961000    -0.080429000    -0.064505000
H      -0.186696000    -1.608503000     8.364333000
H       0.439750000    -2.188697000     6.815744000
H      -1.289718000    -1.871406000     7.007558000
H       1.484117000     0.360065000     8.277674000
H       1.506349000     1.418371000     6.861617000
H       2.090790000    -0.246761000     6.731892000
H      -2.133289000     0.528215000     7.193691000
H      -1.043414000     0.823751000     8.553890000
H      -0.988257000     1.875941000     7.134267000
I       0.424328000    -3.059329000     0.474622000
I       1.417746000    -5.590356000     0.931899000