13
energy: -22607879965330.324219 kJ/mol; low freq (cm^-1) (cm^-1) (cm^-1): 16.18, 37.19, 38.53
C       0.096432000     0.012874000     4.275456000
N      -0.870692000    -0.769015000     4.801092000
C      -0.890865000    -0.708137000     6.180717000
C       0.097289000     0.143541000     6.537938000
N       0.682762000     0.568793000     5.355960000
Au      0.431529000     0.153330000     2.299285000
I       0.433375000    -0.049158000    -0.304402000
H      -1.490126000    -1.323065000     4.225602000
H      -1.590868000    -1.264543000     6.774520000
H       0.427458000     0.475306000     7.503817000
H       1.452268000     1.210345000     5.282930000
I      -1.951960000    -1.896405000     1.196556000
I      -3.822040000    -3.288647000     2.764877000