13
energy: -25584067627824.171875 kJ/mol; low freq (cm^-1) (cm^-1) (cm^-1): 25.25, 37.12, 40.62
C       0.038593000    -0.077609000     1.961311000
N      -0.772467000    -0.776982000     2.777619000
C      -0.520821000    -0.512933000     4.109684000
C       0.489773000     0.385736000     4.133620000
N       0.813233000     0.633718000     2.810045000
Au      0.045106000    -0.109354000    -0.041113000
Cl      0.039798000    -0.141394000    -2.325004000
H      -1.478804000    -1.399349000     2.405405000
H      -1.069707000    -0.976744000     4.906997000
H       0.994272000     0.857479000     4.955190000
H       1.530675000     1.261485000     2.492723000
I      -2.323144000    -2.110143000    -0.137805000
I      -4.373134000    -3.855205000     0.525912000