13
energy: -3915616.836000 kJ/mol; low freq (cm^-1): 35.38, 38.1, 45.04
C       0.088318000    -0.004584000     4.260720000
N      -0.890604000    -0.760741000     4.802585000
C      -0.884604000    -0.695942000     6.181888000
C       0.131209000     0.129989000     6.521857000
N       0.707851000     0.537642000     5.329584000
Au      0.380396000     0.129227000     2.279504000
I       0.180861000    -0.170046000    -0.320418000
H      -1.538946000    -1.308688000     4.248434000
H      -1.589696000    -1.232243000     6.788089000
H       0.486048000     0.454806000     7.481306000
H       1.493125000     1.157843000     5.241902000
Br     -1.925018000    -1.805557000     1.197874000
Br     -3.359835000    -2.891949000     2.881022000