13
energy: -28559532977705.988281 kJ/mol; low freq (cm^-1) (cm^-1) (cm^-1): 39.08, 44.26, 56.53
C       0.087261000    -0.012973000     4.255464000
N      -0.895976000    -0.750046000     4.815584000
C      -0.893903000    -0.643844000     6.192630000
C       0.123242000     0.188941000     6.511331000
N       0.704848000     0.559572000     5.309501000
Au      0.382885000     0.055553000     2.272517000
I       0.143425000    -0.361096000    -0.306882000
H      -1.544485000    -1.310424000     4.272600000
H      -1.601575000    -1.159995000     6.813178000
H       0.475855000     0.541060000     7.461903000
H       1.491899000     1.174907000     5.205405000
Cl     -1.875430000    -1.852692000     1.254620000
Cl     -3.135688000    -2.705950000     2.836495000