13
energy: -3711461.030000 kJ/mol; low freq (cm^-1): 6.38, 26.0, 35.03
C      -0.033141000     0.036186000     4.134129000
N      -0.776812000    -0.579324000     5.078505000
C      -0.330581000    -0.294110000     6.358567000
C       0.730168000     0.530650000     6.211733000
N       0.889309000     0.716121000     4.850267000
Au     -0.165119000     0.018838000     2.155069000
Cl     -0.152452000     0.131040000    -0.155789000
H      -1.556441000    -1.169916000     4.848660000
H      -0.795452000    -0.693234000     7.239724000
H       1.370572000     0.990391000     6.940128000
H       1.595080000     1.283236000     4.410382000
I       2.155262000     2.102661000     0.500767000
I       4.206293000     3.829480000     1.167586000