13
energy: -4461086.515000 kJ/mol; low freq (cm^-1): 9.65, 16.38, 47.76
C       0.030092000    -0.104879000     4.289497000
N      -0.800257000    -0.815017000     5.084929000
C      -0.654915000    -0.481241000     6.420198000
C       0.300191000     0.473607000     6.467798000
N       0.699381000     0.684023000     5.158366000
Au      0.189320000    -0.235448000     2.307555000
Br      0.278710000    -0.488942000    -0.106259000
H      -1.441614000    -1.496720000     4.716907000
H      -1.229325000    -0.941638000     7.201314000
H       0.720248000     1.008460000     7.298111000
H       1.399643000     1.339116000     4.858335000
Cl     -2.202134000    -2.005008000     0.482647000
Cl     -3.953008000    -3.066738000     0.923445000