13
energy: -4143114.190000 kJ/mol; low freq (cm^-1): 36.4, 39.42, 44.58
C      -0.038343000    -0.108101000     1.961077000
N      -0.832151000    -0.812942000     2.788247000
C      -0.572661000    -0.538192000     4.117044000
C       0.423234000     0.377224000     4.126332000
N       0.730279000     0.622145000     2.798237000
Au     -0.013779000    -0.176619000    -0.064660000
I       0.102999000    -0.228314000    -2.635077000
H      -1.526984000    -1.451165000     2.427611000
H      -1.105295000    -1.006246000     4.922871000
H       0.927537000     0.863906000     4.939307000
H       1.433649000     1.260574000     2.470534000
Cl     -2.212246000    -1.906198000     0.094230000
Cl     -3.853881000    -3.173059000     0.553531000