13
energy: -29967455383453.261719 kJ/mol; low freq (cm^-1) (cm^-1) (cm^-1): 10.59, 16.04, 48.22
C       0.027008000     0.081553000     4.228071000
N      -0.797939000    -0.580491000     5.068881000
C      -0.452818000    -0.388215000     6.396080000
C       0.627187000     0.423951000     6.389510000
N       0.898413000     0.694342000     5.059519000
Au     -0.001125000     0.155472000     2.245456000
Cl      0.024077000     0.282926000    -0.058558000
H      -1.564966000    -1.139449000     4.738887000
H      -0.993119000    -0.834910000     7.208774000
H       1.212725000     0.822661000     7.195837000
H       1.646482000     1.274196000     4.719568000
Br      2.213012000     2.150824000     0.187876000
Br      4.023207000     3.684618000     0.359826000