13
energy: -26991296828763.261719 kJ/mol; low freq (cm^-1) (cm^-1) (cm^-1): 30.95, 32.61, 40.44
C      -0.007107000    -0.083302000     1.969732000
N      -0.808540000    -0.803404000     2.776337000
C      -0.571919000    -0.541165000     4.111064000
C       0.417236000     0.381153000     4.146806000
N       0.743503000     0.642583000     2.825956000
Au      0.017911000    -0.146228000    -0.057657000
I       0.065763000    -0.236898000    -2.628259000
H      -1.495901000    -1.440358000     2.395619000
H      -1.114458000    -1.021205000     4.903176000
H       0.905367000     0.860910000     4.973643000
H       1.447021000     1.290224000     2.517262000
Br     -2.248186000    -1.959085000    -0.038853000
Br     -4.071585000    -3.403467000     0.604460000