13
energy: -4233589.995000 kJ/mol; low freq (cm^-1): 32.46, 38.78, 43.91
C      -0.001333000     0.126194000     1.959228000
N      -0.783694000    -0.589311000     2.796710000
C      -0.487040000    -0.331672000     4.124684000
C       0.515448000     0.576405000     4.114288000
N       0.789965000     0.834931000     2.785623000
Au     -0.003486000     0.160707000    -0.054751000
Br     -0.065947000     0.169401000    -2.458692000
H      -1.489251000    -1.225707000     2.469783000
H      -1.002534000    -0.804477000     4.938802000
H       1.044985000     1.049110000     4.919438000
H       1.492439000     1.464988000     2.421501000
Br      2.248582000     1.971107000     0.005979000
Br      4.069175000     3.458875000     0.520344000