13
energy: -3597686.322000 kJ/mol; low freq (cm^-1): 24.05, 35.15, 36.03
C      -0.004796000    -0.134117000     4.114476000
N      -0.902292000    -0.911038000     4.750418000
C      -0.904526000    -0.691553000     6.114161000
C       0.026067000     0.262377000     6.345754000
N       0.559808000     0.584935000     5.109116000
Au      0.364757000    -0.104793000     2.137846000
Br      0.802829000    -0.096447000    -0.230376000
H      -1.481811000    -1.564950000     4.240308000
H      -1.554984000    -1.217511000     6.786768000
H       0.346032000     0.729104000     7.257856000
H       1.279901000     1.266069000     4.944665000
I      -2.086470000    -1.909397000     1.505567000
I      -4.427739000    -3.384444000     1.717261000