13
energy: -4574864.966000 kJ/mol; low freq (cm^-1): 11.9, 15.3, 54.78
C       0.059338000     0.054526000     4.211604000
N      -0.828293000    -0.516303000     5.056218000
C      -0.487545000    -0.317878000     6.383672000
C       0.654962000     0.403595000     6.374423000
N       0.965796000     0.616336000     5.042457000
Au      0.058632000     0.085500000     2.227373000
Cl      0.113519000     0.167351000    -0.073358000
H      -1.633189000    -1.020074000     4.727687000
H      -1.073405000    -0.698207000     7.198579000
H       1.259241000     0.774946000     7.180000000
H       1.761300000     1.127348000     4.700487000
Cl      2.175779000     2.163757000     0.236590000
Cl      3.652755000     3.603328000     0.473995000