13
energy: -4461092.468000 kJ/mol; low freq (cm^-1): 38.68, 40.89, 51.09
C      -0.056034000    -0.098943000     1.951714000
N      -0.838181000    -0.808333000     2.787236000
C      -0.578187000    -0.518474000     4.112735000
C       0.404343000     0.410971000     4.111771000
N       0.703981000     0.649739000     2.780946000
Au     -0.009841000    -0.192367000    -0.058216000
Br      0.145480000    -0.287353000    -2.457875000
H      -1.527401000    -1.456116000     2.433399000
H      -1.101448000    -0.987850000     4.923929000
H       0.904381000     0.909906000     4.919896000
H       1.397465000     1.295052000     2.445770000
Cl     -2.229721000    -1.887915000     0.102499000
Cl     -3.878503000    -3.158740000     0.489135000