13
energy: -3597687.053000 kJ/mol; low freq (cm^-1): 22.67, 37.25, 37.73
C      -0.047087000     0.085995000     1.975205000
N      -0.811427000    -0.617611000     2.838831000
C      -0.486574000    -0.342264000     4.156921000
C       0.515246000     0.565632000     4.113280000
N       0.760988000     0.806661000     2.775915000
Au     -0.050273000     0.110697000    -0.036041000
Br     -0.014466000     0.176949000    -2.444091000
H      -1.523712000    -1.257941000     2.535282000
H      -0.983851000    -0.804269000     4.988414000
H       1.061596000     1.048303000     4.901096000
H       1.456226000     1.432926000     2.389923000
I       2.334265000     2.104342000    -0.185104000
I       4.390920000     3.825674000     0.533308000