13
energy: -4574873.227000 kJ/mol; low freq (cm^-1): 37.92, 45.86, 65.42
C       0.059630000     0.115998000     1.948281000
N      -0.763329000    -0.556123000     2.783716000
C      -0.434843000    -0.344036000     4.112211000
C       0.630188000     0.489479000     4.105736000
N       0.908525000     0.751409000     2.778325000
Au      0.044458000     0.162269000    -0.053483000
Cl     -0.025875000     0.161530000    -2.334459000
H      -1.517318000    -1.132817000     2.454138000
H      -0.974615000    -0.792506000     4.924315000
H       1.201293000     0.907672000     4.912596000
H       1.641778000     1.346117000     2.419680000
Cl      2.168453000     1.979703000     0.100811000
Cl      3.740545000     3.355528000     0.422716000