13
energy: -4347370.046000 kJ/mol; low freq (cm^-1): 34.66, 38.15, 53.03
C       0.033664000     0.114950000     1.956342000
N      -0.749739000    -0.596509000     2.797188000
C      -0.421096000    -0.369000000     4.123361000
C       0.601672000     0.515993000     4.108446000
N       0.855192000     0.792587000     2.779481000
Au      0.007727000     0.162386000    -0.047593000
Cl     -0.060079000     0.174664000    -2.327442000
H      -1.476533000    -1.210662000     2.474309000
H      -0.931763000    -0.844199000     4.939103000
H       1.157604000     0.961850000     4.911104000
H       1.567566000     1.410109000     2.413120000
Br      2.236500000     1.996812000    -0.000435000
Br      4.041429000     3.518497000     0.447601000