13
energy: -29183158369466.492188 kJ/mol; low freq (cm^-1) (cm^-1) (cm^-1): 7.25, 18.22, 45.3
C       0.046186000    -0.123738000     4.302505000
N      -0.726637000    -0.885160000     5.107695000
C      -0.613679000    -0.517167000     6.437102000
C       0.260331000     0.513084000     6.469908000
N       0.645624000     0.732532000     5.158058000
Au      0.224023000    -0.270040000     2.323187000
Br      0.348034000    -0.537554000    -0.092174000
H      -1.310124000    -1.622548000     4.750392000
H      -1.150630000    -1.009757000     7.225165000
H       0.632201000     1.095321000     7.291313000
H       1.290045000     1.438315000     4.847846000
Br     -2.215532000    -1.988150000     0.436299000
Br     -4.276762000    -3.138818000     0.845548000