13
energy: -3279712.628000 kJ/mol; low freq (cm^-1): 13.81, 37.33, 38.47
C      -0.094656000     0.023129000     1.973097000
N      -0.810798000    -0.614906000     2.922100000
C      -0.395234000    -0.274889000     4.199501000
C       0.617209000     0.607882000     4.041022000
N       0.779195000     0.772167000     2.679179000
Au     -0.145061000     0.001414000    -0.035450000
I       0.223863000     0.338699000    -2.599017000
H      -1.551601000    -1.255710000     2.699220000
H      -0.845389000    -0.680352000     5.085462000
H       1.222594000     1.122387000     4.762701000
H       1.462515000     1.369694000     2.234418000
I       2.341359000     2.123658000    -0.683201000
I       3.923881000     3.455358000     1.220254000