45
energy: -33292567919598.273438 kJ/mol; low freq (cm^-1) (cm^-1) (cm^-1): 6.0, 12.46, 24.34
C       0.174993000    -0.075166000     4.423662000
N       0.779811000     0.780260000     5.280562000
C       1.783952000     1.773419000     4.882601000
C       3.136801000     1.487315000     5.532988000
C       4.178296000     2.509853000     5.073343000
C       3.713762000     3.942693000     5.341611000
C       2.349856000     4.213740000     4.703553000
C       1.303232000     3.196266000     5.163159000
C       0.324622000     0.573259000     6.569635000
C      -0.580026000    -0.431587000     6.508041000
N      -0.657634000    -0.821739000     5.185057000
C      -1.538795000    -1.875699000     4.658185000
C      -1.297969000    -3.209630000     5.360230000
C      -2.190199000    -4.293286000     4.750846000
C      -3.666568000    -3.894751000     4.788016000
C      -3.896830000    -2.539456000     4.117332000
C      -3.004974000    -1.452186000     4.720519000
Au      0.410220000    -0.215169000     2.438061000
Br      0.601752000    -0.467018000     0.015204000
H       1.881710000     1.645152000     3.804061000
H       3.450234000     0.472702000     5.282617000
H       3.034780000     1.534255000     6.621437000
H       4.355903000     2.381510000     4.001434000
H       5.128967000     2.316131000     5.572108000
H       4.451819000     4.653201000     4.966070000
H       3.645272000     4.103761000     6.422476000
H       2.443088000     4.162852000     3.614623000
H       2.010546000     5.223097000     4.940397000
H       1.124585000     3.316003000     6.236033000
H       0.350693000     3.362089000     4.657670000
H       0.675950000     1.144606000     7.407266000
H      -1.162111000    -0.893358000     7.282141000
H      -1.254394000    -1.979522000     3.611349000
H      -1.521154000    -3.109944000     6.427223000
H      -0.244318000    -3.480713000     5.273986000
H      -2.036271000    -5.235055000     5.279864000
H      -1.891788000    -4.463674000     3.714149000
H      -4.005057000    -3.848676000     5.828928000
H      -4.267087000    -4.658403000     4.292486000
H      -4.943836000    -2.244659000     4.202759000
H      -3.682050000    -2.626622000     3.050011000
H      -3.129665000    -0.508980000     4.186051000
H      -3.287261000    -1.274777000     5.763435000
I      -1.383978000    -2.837853000     0.447785000
I      -3.145571000    -4.969090000     0.782814000