45
energy: -5579409.786000 kJ/mol; low freq (cm^-1): 9.05, 15.75, 27.26
C      -0.017830000     0.003666000     4.355836000
N       1.053833000    -0.209778000     5.154759000
C       2.385700000    -0.574848000     4.638767000
C       3.120982000    -1.531382000     5.571168000
C       4.462157000    -1.932410000     4.950648000
C       5.318137000    -0.706033000     4.627443000
C       4.565141000     0.279994000     3.732623000
C       3.215459000     0.672683000     4.336633000
C       0.726011000     0.035303000     6.473908000
C      -0.579296000     0.394533000     6.495050000
N      -1.020107000     0.378130000     5.184372000
C      -2.398101000     0.613861000     4.732019000
C      -3.241334000    -0.654773000     4.866364000
C      -4.657101000    -0.416301000     4.338438000
C      -5.318455000     0.780232000     5.024838000
C      -4.454489000     2.037542000     4.905480000
C      -3.041215000     1.800346000     5.444900000
Au     -0.034669000    -0.211420000     2.372252000
Cl      0.113267000    -0.516809000     0.075838000
H       2.189185000    -1.091989000     3.699456000
H       2.503744000    -2.411060000     5.762377000
H       3.306957000    -1.045941000     6.534130000
H       4.281391000    -2.495334000     4.032102000
H       4.993567000    -2.599662000     5.631056000
H       6.243184000    -1.017828000     4.140627000
H       5.603307000    -0.206995000     5.560047000
H       4.396527000    -0.176006000     2.754629000
H       5.165270000     1.175104000     3.562247000
H       3.363025000     1.235249000     5.264353000
H       2.659504000     1.313933000     3.651338000
H       1.430756000    -0.066356000     7.275784000
H      -1.214639000     0.655011000     7.318940000
H      -2.302213000     0.852246000     3.672244000
H      -3.279590000    -0.948467000     5.919920000
H      -2.756136000    -1.465047000     4.320795000
H      -5.257744000    -1.316504000     4.475700000
H      -4.608862000    -0.235177000     3.260490000
H      -5.474064000     0.549229000     6.083773000
H      -6.305386000     0.962172000     4.596438000
H      -4.915490000     2.869565000     5.439668000
H      -4.391742000     2.336358000     3.854980000
H      -2.421328000     2.689064000     5.315977000
H      -3.102596000     1.600128000     6.518471000
Br      2.612599000    -1.764284000     0.589306000
Br      4.703696000    -2.844037000     1.011654000