45
energy: -5147662.638000 kJ/mol; low freq (cm^-1): 4.21, 12.52, 25.05
C       0.185434000     0.090960000     4.597959000
N       0.826649000    -0.762020000     5.428980000
C       1.733795000    -1.824244000     4.979733000
C       1.251952000    -3.200373000     5.436112000
C       2.193462000    -4.293023000     4.924473000
C       3.639700000    -4.031973000     5.350137000
C       4.107904000    -2.644575000     4.906808000
C       3.171664000    -1.547160000     5.417166000
C       0.522052000    -0.470803000     6.745875000
C      -0.327068000     0.583499000     6.726583000
N      -0.518145000     0.921172000     5.400865000
C      -1.417295000     1.976766000     4.902720000
C      -2.871852000     1.509811000     4.926094000
C      -3.786096000     2.591735000     4.348457000
C      -3.604260000     3.927908000     5.070686000
C      -2.138878000     4.367979000     5.073076000
C      -1.227222000     3.287455000     5.660017000
Au      0.200618000     0.141394000     2.582674000
I       0.072837000     0.377483000    -0.007575000
H       1.686258000    -1.780766000     3.891027000
H       0.234042000    -3.364363000     5.079307000
H       1.219444000    -3.231784000     6.529282000
H       2.138503000    -4.329606000     3.832357000
H       1.858040000    -5.266052000     5.286048000
H       4.296636000    -4.799593000     4.938124000
H       3.714620000    -4.107323000     6.439900000
H       4.141316000    -2.605842000     3.813886000
H       5.123476000    -2.453641000     5.256326000
H       3.216953000    -1.505949000     6.509688000
H       3.479277000    -0.568746000     5.045157000
H       0.929113000    -1.022469000     7.571362000
H      -0.797322000     1.112430000     7.532717000
H      -1.121267000     2.129800000     3.864664000
H      -3.158988000     1.284949000     5.958635000
H      -2.959890000     0.584137000     4.355049000
H      -4.825087000     2.264026000     4.408666000
H      -3.558688000     2.723576000     3.288642000
H      -3.958244000     3.835763000     6.103473000
H      -4.217516000     4.692494000     4.592399000
H      -2.020032000     5.292593000     5.640194000
H      -1.829667000     4.584423000     4.048438000
H      -0.180500000     3.592571000     5.608687000
H      -1.472975000     3.143821000     6.716811000
Br     -1.516109000     2.860441000     0.681104000
Br     -2.792168000     4.878416000     1.211163000