45
energy: -4511755.239000 kJ/mol; low freq (cm^-1): 6.83, 13.85, 17.4
C      -0.082944000    -0.008720000     4.532058000
N       0.727121000    -0.755004000     5.317100000
C       1.708019000    -1.726434000     4.808648000
C       1.353642000    -3.144884000     5.252091000
C       2.358013000    -4.148873000     4.682886000
C       3.792375000    -3.778690000     5.064204000
C       4.129849000    -2.352441000     4.628736000
C       3.133886000    -1.337489000     5.192569000
C       0.495084000    -0.477489000     6.650394000
C      -0.479523000     0.460833000     6.692727000
N      -0.826491000     0.735253000     5.382448000
C      -1.813454000     1.732748000     4.953028000
C      -3.186288000     1.467127000     5.567607000
C      -4.200415000     2.502045000     5.074341000
C      -3.725704000     3.929514000     5.353633000
C      -2.341507000     4.182278000     4.753127000
C      -1.321868000     3.151246000     5.240738000
Au     -0.051848000     0.030606000     2.516048000
I       0.259476000     0.053545000    -0.073499000
H       1.618533000    -1.665887000     3.723992000
H       0.338785000    -3.382097000     4.928059000
H       1.364551000    -3.198732000     6.345203000
H       2.267084000    -4.165234000     3.592819000
H       2.112666000    -5.152798000     5.032955000
H       4.493486000    -4.483241000     4.613883000
H       3.911612000    -3.867712000     6.149408000
H       4.116720000    -2.290415000     3.537865000
H       5.139634000    -2.081357000     4.935929000
H       3.223108000    -1.301441000     6.282952000
H       3.352741000    -0.338963000     4.812728000
H       1.031398000    -0.961252000     7.443993000
H      -0.944824000     0.944972000     7.529697000
H      -1.882071000     1.600647000     3.872591000
H      -3.116967000     1.521130000     6.658143000
H      -3.508001000     0.455455000     5.315421000
H      -5.167930000     2.321562000     5.544949000
H      -4.347431000     2.373749000     3.997775000
H      -3.685272000     4.091020000     6.435858000
H      -4.444577000     4.648329000     4.957240000
H      -1.995123000     5.186938000     4.999352000
H      -2.405307000     4.132835000     3.662040000
H      -0.355054000     3.301105000     4.758179000
H      -1.167015000     3.267758000     6.317780000
I       3.291660000     0.228607000     1.255459000
I       5.847843000     0.441101000     2.380797000