45
energy: -33292491343108.527344 kJ/mol; low freq (cm^-1) (cm^-1) (cm^-1): 2.94, 19.15, 23.66
C       0.056083000    -0.054850000     2.012511000
N       0.833159000     0.659208000     2.857795000
C       1.851447000     1.623513000     2.419664000
C       3.192443000     1.387215000     3.109396000
C       4.232939000     2.386879000     2.597322000
C       3.756750000     3.830925000     2.769411000
C       2.399505000     4.053582000     2.099264000
C       1.354434000     3.057494000     2.603900000
C       0.448543000     0.438697000     4.167143000
C      -0.584124000    -0.435458000     4.129701000
N      -0.815008000    -0.726418000     2.798681000
C      -1.876585000    -1.608070000     2.294136000
C      -1.603529000    -3.069453000     2.644736000
C      -2.699343000    -3.967645000     2.065734000
C      -4.091186000    -3.522443000     2.519834000
C      -4.341660000    -2.049935000     2.188190000
C      -3.252526000    -1.150258000     2.774854000
Au      0.135271000    -0.045841000    -0.004589000
Br      0.298368000    -0.074145000    -2.411700000
H       1.970174000     1.432774000     1.352465000
H       3.519209000     0.360978000     2.933565000
H       3.077761000     1.509445000     4.190530000
H       4.423553000     2.192438000     1.537719000
H       5.178677000     2.231109000     3.118341000
H       4.496729000     4.520108000     2.359447000
H       3.674324000     4.058470000     3.837330000
H       2.505866000     3.940269000     1.016346000
H       2.049353000     5.072025000     2.272075000
H       1.156761000     3.234509000     3.665664000
H       0.409184000     3.181072000     2.074510000
H       0.930926000     0.911965000     5.000450000
H      -1.161989000    -0.865566000     4.924809000
H      -1.834418000    -1.496019000     1.210645000
H      -1.571815000    -3.181244000     3.732982000
H      -0.623123000    -3.357357000     2.261820000
H      -2.515955000    -5.003813000     2.353741000
H      -2.647108000    -3.932916000     0.973508000
H      -4.182029000    -3.669210000     3.601209000
H      -4.854553000    -4.148134000     2.054586000
H      -5.317260000    -1.734026000     2.559755000
H      -4.364235000    -1.918898000     1.102419000
H      -3.408536000    -0.111043000     2.486311000
H      -3.293256000    -1.197221000     3.867286000
I      -2.172049000     1.924870000     0.251259000
I      -4.323865000     3.633586000     0.691074000