45
energy: -37675926422272.343750 kJ/mol; low freq (cm^-1) (cm^-1) (cm^-1): 3.44, 21.35, 25.33
C      -0.206329000     0.086128000     1.991002000
N       0.499416000     0.877225000     2.830341000
C       1.563207000     1.790332000     2.389327000
C       2.939948000     1.159613000     2.599407000
C       4.037553000     2.092745000     2.085835000
C       3.941923000     3.478987000     2.726081000
C       2.552093000     4.088727000     2.530277000
C       1.452770000     3.159975000     3.053301000
C       0.164149000     0.603868000     4.143380000
C      -0.775772000    -0.369602000     4.112521000
N      -0.990207000    -0.678303000     2.782835000
C      -1.909516000    -1.712844000     2.289155000
C      -1.572104000    -3.082144000     2.876454000
C      -2.509038000    -4.146075000     2.301777000
C      -3.977756000    -3.782601000     2.529374000
C      -4.302748000    -2.396403000     1.968635000
C      -3.366779000    -1.326223000     2.535623000
Au     -0.035530000     0.009747000    -0.019040000
Br      0.133855000     0.017195000    -2.426184000
H       1.398040000     1.909236000     1.317818000
H       2.975514000     0.196717000     2.088919000
H       3.084923000     0.966255000     3.666817000
H       3.945063000     2.186909000     0.999807000
H       5.015573000     1.649276000     2.276826000
H       4.702514000     4.140273000     2.307962000
H       4.151964000     3.397788000     3.797651000
H       2.385199000     4.275464000     1.465307000
H       2.484251000     5.055480000     3.031205000
H       1.559169000     3.055747000     4.137039000
H       0.464229000     3.582017000     2.864626000
H       0.610122000     1.115143000     4.974345000
H      -1.300870000    -0.856677000     4.911403000
H      -1.734347000    -1.745813000     1.214029000
H      -1.682783000    -3.050915000     3.964677000
H      -0.531693000    -3.322490000     2.660232000
H      -2.280485000    -5.114746000     2.747919000
H      -2.318971000    -4.244600000     1.229073000
H      -4.190619000    -3.796310000     3.603473000
H      -4.626143000    -4.532270000     2.072966000
H      -5.338873000    -2.129942000     2.182449000
H      -4.202902000    -2.414575000     0.879321000
H      -3.566753000    -0.354959000     2.080124000
H      -3.537312000    -1.220222000     3.611482000
Br      1.482448000    -2.328393000     0.570951000
Br      2.662912000    -4.345330000     1.153538000