45
energy: -5375161.016000 kJ/mol; low freq (cm^-1): 6.35, 12.88, 24.86
C       0.162692000     0.081074000     4.578791000
N       0.802876000    -0.771876000     5.411257000
C       1.775045000    -1.779035000     4.971565000
C       1.271822000    -3.194880000     5.250309000
C       2.282615000    -4.230641000     4.753381000
C       3.668800000    -3.995392000     5.356470000
C       4.157045000    -2.570570000     5.087679000
C       3.151791000    -1.529827000     5.585892000
C       0.404131000    -0.559720000     6.718391000
C      -0.500997000     0.446441000     6.692260000
N      -0.637163000     0.829434000     5.372078000
C      -1.532776000     1.888966000     4.880515000
C      -2.997695000     1.529487000     5.119627000
C      -3.909586000     2.619927000     4.553160000
C      -3.561978000     3.996066000     5.124507000
C      -2.085330000     4.333643000     4.908649000
C      -1.171156000     3.246524000     5.478333000
Au      0.310522000     0.251393000     2.574544000
I       0.326804000     0.652854000     0.004282000
H       1.843489000    -1.639040000     3.892121000
H       0.302505000    -3.334420000     4.769415000
H       1.119142000    -3.320776000     6.326490000
H       2.347583000    -4.171854000     3.662785000
H       1.927443000    -5.234460000     4.990565000
H       4.380764000    -4.718370000     4.955238000
H       3.625914000    -4.164578000     6.437422000
H       4.307250000    -2.436237000     4.012306000
H       5.125416000    -2.402314000     5.560976000
H       3.079917000    -1.586232000     6.676245000
H       3.481107000    -0.519862000     5.337181000
H       0.789639000    -1.129272000     7.542131000
H      -1.047712000     0.912897000     7.489123000
H      -1.356281000     1.925950000     3.805259000
H      -3.174728000     1.419837000     6.194511000
H      -3.212695000     0.565040000     4.656355000
H      -4.951009000     2.371554000     4.763862000
H      -3.804352000     2.647651000     3.466679000
H      -3.786738000     4.013232000     6.196733000
H      -4.187519000     4.758691000     4.658802000
H      -1.842327000     5.293230000     5.367793000
H      -1.895846000     4.437841000     3.838209000
H      -0.124151000     3.468723000     5.265097000
H      -1.279464000     3.207279000     6.567067000
Cl     -1.639308000     2.736987000     0.672285000
Cl     -3.087516000     4.274080000     1.147608000