45
energy: -4943506.224000 kJ/mol; low freq (cm^-1): 2.72, 13.97, 17.11
C       0.006269000     0.155002000     4.233094000
N       1.112142000     0.078187000     5.009735000
C       2.464360000    -0.194377000     4.497135000
C       2.916447000    -1.610036000     4.851355000
C       4.313188000    -1.879444000     4.289479000
C       5.321980000    -0.827158000     4.749936000
C       4.849409000     0.583471000     4.393763000
C       3.458742000     0.865442000     4.966745000
C       0.780428000     0.251955000     6.339720000
C      -0.557208000     0.450699000     6.388473000
N      -1.017583000     0.393757000     5.085874000
C      -2.420152000     0.522385000     4.673307000
C      -3.236773000    -0.693689000     5.109891000
C      -4.686592000    -0.563105000     4.638783000
C      -5.317229000     0.745096000     5.119943000
C      -4.482751000     1.954435000     4.693192000
C      -3.033097000     1.831060000     5.168483000
Au     -0.069694000    -0.163522000     2.264280000
Cl     -0.056894000    -0.657519000    -0.004474000
H       2.364974000    -0.128363000     3.413663000
H       2.199065000    -2.326750000     4.449693000
H       2.923336000    -1.726431000     5.939842000
H       4.260207000    -1.879397000     3.198280000
H       4.637306000    -2.879458000     4.576856000
H       6.296391000    -1.020974000     4.298757000
H       5.458051000    -0.899136000     5.834398000
H       4.816667000     0.689219000     3.305482000
H       5.554990000     1.330699000     4.760342000
H       3.513991000     0.859304000     6.059556000
H       3.105943000     1.854026000     4.667796000
H       1.509001000     0.224296000     7.126824000
H      -1.204699000     0.628091000     7.225455000
H      -2.383818000     0.542955000     3.583636000
H      -3.209574000    -0.774311000     6.200945000
H      -2.777027000    -1.597678000     4.708019000
H      -5.265860000    -1.418622000     4.988775000
H      -4.710600000    -0.596233000     3.545489000
H      -5.396067000     0.728317000     6.211952000
H      -6.334048000     0.836315000     4.734755000
H      -4.919021000     2.876144000     5.080909000
H      -4.495875000     2.036805000     3.602336000
H      -2.433660000     2.670780000     4.813327000
H      -3.009194000     1.857510000     6.261959000
I       1.938122000    -2.805114000     0.856235000
I       3.701087000    -4.796323000     1.613841000