45
energy: -5147647.595000 kJ/mol; low freq (cm^-1): 1.89, 21.63, 25.04
C      -0.053164000    -0.044800000     2.029742000
N       0.711174000    -0.799990000     2.850101000
C       1.747170000    -1.736243000     2.392000000
C       1.358829000    -3.186493000     2.674524000
C       2.428961000    -4.132375000     2.122332000
C       3.818123000    -3.794663000     2.669785000
C       4.178877000    -2.328942000     2.417264000
C       3.113219000    -1.386397000     2.978671000
C       0.383925000    -0.560003000     4.171052000
C      -0.603498000     0.365726000     4.169693000
N      -0.864686000     0.667335000     2.846034000
C      -1.812990000     1.684839000     2.373293000
C      -3.201028000     1.496946000     2.984467000
C      -4.167741000     2.550285000     2.434856000
C      -3.638873000     3.969580000     2.662624000
C      -2.237377000     4.144606000     2.070770000
C      -1.265183000     3.093648000     2.611585000
Au      0.022862000     0.074579000    -0.001265000
I       0.032563000     0.251943000    -2.575090000
H       1.790190000    -1.592796000     1.313867000
H       0.386452000    -3.397236000     2.225770000
H       1.256604000    -3.334487000     3.754217000
H       2.441941000    -4.053222000     1.031266000
H       2.165187000    -5.164825000     2.357397000
H       4.565993000    -4.449450000     2.219186000
H       3.838197000    -3.991354000     3.747047000
H       4.274639000    -2.151581000     1.342618000
H       5.148161000    -2.090029000     2.856597000
H       3.079661000    -1.481057000     4.068649000
H       3.355723000    -0.350032000     2.746242000
H       0.870512000    -1.058733000     4.987140000
H      -1.130503000     0.823817000     4.984498000
H      -1.880488000     1.517991000     1.296793000
H      -3.143364000     1.597901000     4.072780000
H      -3.562146000     0.488561000     2.772164000
H      -5.147623000     2.426886000     2.899909000
H      -4.306287000     2.382101000     1.362256000
H      -3.606408000     4.174863000     3.738365000
H      -4.324271000     4.698751000     2.227049000
H      -1.853436000     5.144208000     2.282424000
H      -2.288628000     4.053732000     0.981273000
H      -0.288287000     3.184480000     2.133266000
H      -1.116283000     3.244957000     3.685742000
Br      2.837827000     0.805893000    -0.061225000
Br      5.139176000     1.204007000     0.514699000