45
energy: -4511755.208000 kJ/mol; low freq (cm^-1): 6.63, 11.76, 17.5
C       0.068046000    -0.039651000     2.030469000
N       0.861981000    -0.756945000     2.858057000
C       1.814238000    -1.775927000     2.401186000
C       1.302804000    -3.182931000     2.710477000
C       2.283974000    -4.236604000     2.193318000
C       3.692524000    -4.010926000     2.746058000
C       4.187064000    -2.594405000     2.446030000
C       3.211561000    -1.537403000     2.969578000
C       0.595341000    -0.439161000     4.177268000
C      -0.378652000     0.500633000     4.163505000
N      -0.690739000     0.735487000     2.838383000
C      -1.702997000     1.689759000     2.359920000
C      -3.104448000     1.299920000     2.824352000
C      -4.135607000     2.294591000     2.288582000
C      -3.788321000     3.732811000     2.674046000
C      -2.377208000     4.104304000     2.214966000
C      -1.338214000     3.119711000     2.755349000
Au     -0.101924000    -0.165283000     0.024820000
I      -0.601137000    -0.317232000    -2.531357000
H       1.850114000    -1.649848000     1.318433000
H       0.317979000    -3.313574000     2.259888000
H       1.180572000    -3.291737000     3.792531000
H       2.312055000    -4.191972000     1.100509000
H       1.925316000    -5.233051000     2.454791000
H       4.382772000    -4.745539000     2.328314000
H       3.685287000    -4.168438000     3.829598000
H       4.300823000    -2.472081000     1.364763000
H       5.173193000    -2.432746000     2.883721000
H       3.178090000    -1.588976000     4.061848000
H       3.546171000    -0.533092000     2.704959000
H       1.109987000    -0.896887000     5.000009000
H      -0.864668000     1.012168000     4.971937000
H      -1.667710000     1.606654000     1.273578000
H      -3.137538000     1.288913000     3.918439000
H      -3.334538000     0.291351000     2.479764000
H      -5.126292000     2.023586000     2.652492000
H      -4.176827000     2.207142000     1.200006000
H      -3.855305000     3.845923000     3.761469000
H      -4.516109000     4.422097000     2.242797000
H      -2.122955000     5.117187000     2.531266000
H      -2.339737000     4.097987000     1.121633000
H      -0.342174000     3.357163000     2.377585000
H      -1.296902000     3.197244000     3.846276000
I      -3.520774000    -0.473703000    -0.969550000
I      -5.968607000    -0.652696000     0.378948000