45
energy: -5375148.260000 kJ/mol; low freq (cm^-1): 7.5, 18.14, 26.24
C      -0.012715000    -0.052034000     2.024069000
N       0.741069000    -0.813039000     2.849035000
C       1.748953000    -1.780779000     2.394949000
C       1.312638000    -3.217137000     2.678589000
C       2.353322000    -4.199675000     2.135464000
C       3.749244000    -3.906304000     2.690056000
C       4.159582000    -2.454569000     2.433963000
C       3.123158000    -1.474716000     2.986251000
C       0.426140000    -0.551739000     4.168989000
C      -0.541832000     0.393992000     4.161939000
N      -0.802579000     0.687665000     2.836388000
C      -1.752929000     1.701585000     2.361432000
C      -3.163115000     1.442763000     2.889636000
C      -4.135139000     2.493370000     2.345135000
C      -3.662598000     3.913624000     2.666015000
C      -2.241110000     4.158103000     2.153786000
C      -1.263112000     3.111599000     2.693317000
Au      0.034338000     0.011638000    -0.007831000
I      -0.031459000     0.081072000    -2.587036000
H       1.799142000    -1.640539000     1.316575000
H       0.336516000    -3.396419000     2.224875000
H       1.199354000    -3.357894000     3.758099000
H       2.374848000    -4.125314000     1.044248000
H       2.054363000    -5.221778000     2.372834000
H       4.478029000    -4.587187000     2.247267000
H       3.756111000    -4.098177000     3.768237000
H       4.266932000    -2.286427000     1.358758000
H       5.133601000    -2.247393000     2.878848000
H       3.082129000    -1.565153000     4.076238000
H       3.400639000    -0.447781000     2.752448000
H       0.907640000    -1.050062000     4.988260000
H      -1.054709000     0.872679000     4.973809000
H      -1.759514000     1.583780000     1.277193000
H      -3.161216000     1.486175000     3.982578000
H      -3.479692000     0.437172000     2.608490000
H      -5.131187000     2.318516000     2.754258000
H      -4.217377000     2.374323000     1.261035000
H      -3.688340000     4.066791000     3.749897000
H      -4.348551000     4.643396000     2.232662000
H      -1.899920000     5.156791000     2.429740000
H      -2.236569000     4.118307000     1.060816000
H      -0.267309000     3.255649000     2.272120000
H      -1.173448000     3.217627000     3.778624000
Cl      2.715280000     0.834278000     0.175418000
Cl      4.743566000     1.285264000     0.571979000