45
energy: -40028466187074.398438 kJ/mol; low freq (cm^-1) (cm^-1) (cm^-1): 6.16, 20.32, 29.36
C       0.131122000     0.229960000     1.968936000
N       1.210935000     0.092649000     2.770620000
C       2.566426000    -0.210816000     2.292418000
C       3.090031000    -1.512058000     2.898633000
C       4.480383000    -1.830013000     2.345394000
C       5.453731000    -0.672036000     2.574449000
C       4.911224000     0.635119000     1.992569000
C       3.518249000     0.958764000     2.538016000
C       0.849006000     0.245647000     4.095663000
C      -0.483840000     0.478921000     4.114521000
N      -0.909050000     0.472931000     2.798996000
C      -2.304187000     0.570431000     2.348313000
C      -3.034305000    -0.756300000     2.559687000
C      -4.469126000    -0.665592000     2.037946000
C      -5.222859000     0.507412000     2.667798000
C      -4.470091000     1.824917000     2.469281000
C      -3.037255000     1.738261000     3.002234000
Au      0.049166000     0.018956000    -0.026991000
Cl     -0.073668000    -0.141905000    -2.308692000
H       2.454251000    -0.349978000     1.217371000
H       2.391697000    -2.319806000     2.682680000
H       3.147407000    -1.410296000     3.986723000
H       4.398866000    -2.031485000     1.273356000
H       4.857346000    -2.744225000     2.805670000
H       6.424729000    -0.903565000     2.133657000
H       5.619410000    -0.547099000     3.649706000
H       4.855729000     0.550406000     0.903251000
H       5.591164000     1.460976000     2.206975000
H       3.581358000     1.155699000     3.612760000
H       3.116727000     1.858188000     2.068394000
H       1.556348000     0.180252000     4.899761000
H      -1.149239000     0.648749000     4.938601000
H      -2.235411000     0.759155000     1.276374000
H      -3.040420000    -0.993613000     3.628117000
H      -2.485100000    -1.551843000     2.055093000
H      -4.990534000    -1.603893000     2.231538000
H      -4.445380000    -0.540814000     0.951358000
H      -5.348924000     0.322687000     3.739707000
H      -6.225473000     0.582093000     2.243727000
H      -4.995748000     2.643857000     2.962445000
H      -4.440916000     2.068514000     1.403131000
H      -2.494674000     2.665978000     2.812918000
H      -3.068542000     1.596361000     4.086445000
Cl      0.269203000    -2.670392000     0.661800000
Cl      0.545020000    -4.694143000     1.211536000