45
energy: -5465635.025000 kJ/mol; low freq (cm^-1): 4.34, 12.5, 24.06
C       0.146613000    -0.100011000     4.426297000
N       0.789415000     0.732518000     5.277485000
C       1.793149000     1.719506000     4.863804000
C       3.149720000     1.439652000     5.508777000
C       4.188080000     2.458021000     5.032707000
C       3.725593000     3.893280000     5.291511000
C       2.357792000     4.159101000     4.659674000
C       1.314283000     3.145312000     5.133815000
C       0.361602000     0.519182000     6.575090000
C      -0.563453000    -0.467635000     6.524480000
N      -0.681134000    -0.840158000     5.199432000
C      -1.601172000    -1.864000000     4.678757000
C      -1.393452000    -3.209478000     5.368857000
C      -2.326726000    -4.260404000     4.762831000
C      -3.789352000    -3.815259000     4.822084000
C      -3.985055000    -2.448608000     4.163140000
C      -3.052367000    -1.395015000     4.763833000
Au      0.313341000    -0.230646000     2.434112000
Br      0.386391000    -0.507773000     0.008440000
H       1.883997000     1.580366000     3.786019000
H       3.462180000     0.422668000     5.266907000
H       3.055475000     1.497932000     6.597339000
H       4.358300000     2.320260000     3.960768000
H       5.142118000     2.268572000     5.526661000
H       4.461529000     4.600248000     4.905270000
H       3.663961000     4.063650000     6.371366000
H       2.444357000     4.099415000     3.570639000
H       2.019792000     5.170338000     4.890330000
H       1.141000000     3.273376000     6.206650000
H       0.358998000     3.306058000     4.631929000
H       0.745124000     1.072895000     7.410439000
H      -1.133785000    -0.928439000     7.307848000
H      -1.334231000    -1.969221000     3.627296000
H      -1.601034000    -3.110602000     6.439095000
H      -0.349961000    -3.512964000     5.268296000
H      -2.195974000    -5.209841000     5.284443000
H      -2.047106000    -4.431559000     3.720958000
H      -4.112378000    -3.765476000     5.867791000
H      -4.421397000    -4.556451000     4.331232000
H      -5.021100000    -2.121498000     4.263980000
H      -3.784998000    -2.535447000     3.092982000
H      -3.153798000    -0.443810000     4.238771000
H      -3.314813000    -1.217784000     5.811976000
Br     -1.502665000    -2.682879000     0.478331000
Br     -3.058608000    -4.491400000     0.829335000