45
energy: -5693131.654000 kJ/mol; low freq (cm^-1): 6.09, 18.41, 27.85
C    -0.207511000000      0.083042000000      1.997735000000
N     0.478214000000      0.893509000000      2.835952000000
C     1.535747000000      1.812099000000      2.391069000000
C     2.912063000000      1.160963000000      2.531860000000
C     4.002646000000      2.099850000000      2.013860000000
C     3.943896000000      3.464278000000      2.703460000000
C     2.554932000000      4.093815000000      2.576022000000
C     1.464596000000      3.158352000000      3.105887000000
C     0.133078000000      0.630234000000      4.148770000000
C    -0.794272000000     -0.355126000000      4.119175000000
N    -0.990009000000     -0.681731000000      2.790697000000
C    -1.902440000000     -1.721939000000      2.297290000000
C    -1.583148000000     -3.082182000000      2.914874000000
C    -2.512283000000     -4.151958000000      2.337760000000
C    -3.983908000000     -3.779475000000      2.529427000000
C    -4.291909000000     -2.401340000000      1.939870000000
C    -3.362832000000     -1.325932000000      2.507972000000
Au   -0.019105000000     -0.016887000000     -0.008653000000
Br    0.173467000000     -0.045716000000     -2.415289000000
H     1.336329000000      1.970430000000      1.330492000000
H     2.919503000000      0.216599000000      1.986692000000
H     3.089520000000      0.928090000000      3.586447000000
H     3.875244000000      2.231987000000      0.935374000000
H     4.981550000000      1.640528000000      2.157034000000
H     4.697254000000      4.132009000000      2.282477000000
H     4.188778000000      3.344388000000      3.763971000000
H     2.353699000000      4.318350000000      1.524402000000
H     2.514768000000      5.043521000000      3.111408000000
H     1.610693000000      3.016148000000      4.180573000000
H     0.474782000000      3.597061000000      2.968895000000
H     0.562777000000      1.156518000000      4.978786000000
H    -1.322445000000     -0.838819000000      4.918088000000
H    -1.706299000000     -1.774151000000      1.226716000000
H    -1.718328000000     -3.032775000000      3.999712000000
H    -0.539307000000     -3.331102000000      2.726721000000
H    -2.297119000000     -5.114294000000      2.803965000000
H    -2.300976000000     -4.268256000000      1.270877000000
H    -4.218456000000     -3.774857000000      3.599103000000
H    -4.625974000000     -4.534129000000      2.072280000000
H    -5.330997000000     -2.127602000000      2.128743000000
H    -4.170520000000     -2.437481000000      0.853220000000
H    -3.549262000000     -0.361619000000      2.032495000000
H    -3.554235000000     -1.201470000000      3.578394000000
Cl    1.328167000000     -2.376972000000      0.616280000000
Cl    2.254900000000     -4.201359000000      1.159178000000
