45
energy: -5806910.422000 kJ/mol; low freq (cm^-1): 6.87, 13.52, 27.01
C       0.041305000    -0.108556000     4.281113000
N       1.130667000    -0.091093000     5.084689000
C       2.503617000    -0.307369000     4.615239000
C       3.110065000    -1.566583000     5.233384000
C       4.527499000    -1.794455000     4.703899000
C       5.415095000    -0.569502000     4.932711000
C       4.791706000     0.689268000     4.326374000
C       3.375209000     0.924456000     4.855540000
C       0.760755000     0.149465000     6.395463000
C      -0.585822000     0.283616000     6.403578000
N      -1.013012000     0.119517000     5.099892000
C      -2.407631000     0.205943000     4.641733000
C      -3.297118000    -0.808078000     5.356979000
C      -4.726774000    -0.728885000     4.816154000
C      -5.289525000     0.690051000     4.922671000
C      -4.376468000     1.706361000     4.233801000
C      -2.945265000     1.629846000     4.769854000
Au     -0.058059000    -0.380634000     2.306400000
Cl     -0.327543000    -0.669650000     0.026049000
H       2.402912000    -0.459398000     3.540152000
H       2.469533000    -2.421590000     5.011989000
H       3.140307000    -1.459253000     6.321981000
H       4.478109000    -2.010604000     3.632558000
H       4.960884000    -2.675230000     5.179918000
H       6.406150000    -0.739348000     4.508896000
H       5.555448000    -0.420901000     6.008473000
H       4.753603000     0.585911000     3.237883000
H       5.412086000     1.562016000     4.535141000
H       3.417488000     1.137566000     5.928035000
H       2.918111000     1.789787000     4.373274000
H       1.471251000     0.202678000     7.197870000
H      -1.261692000     0.476787000     7.214330000
H      -2.367704000    -0.054219000     3.584035000
H      -3.300718000    -0.601070000     6.431830000
H      -2.886174000    -1.809936000     5.221932000
H      -5.362265000    -1.432745000     5.355907000
H      -4.730724000    -1.038607000     3.768552000
H      -5.400585000     0.958374000     5.978940000
H      -6.287109000     0.728109000     4.482528000
H      -4.763982000     2.717838000     4.365384000
H      -4.366593000     1.509715000     3.159316000
H      -2.290499000     2.311825000     4.225099000
H      -2.926148000     1.932061000     5.821961000
Cl     -3.101066000    -0.449074000     0.532971000
Cl     -5.151647000    -0.294356000     0.903364000