45
energy: -39244194286645.875000 kJ/mol; low freq (cm^-1) (cm^-1) (cm^-1): 6.67, 13.5, 25.98
C       0.123360000    -0.099309000     4.423179000
N       0.767588000     0.733284000     5.273554000
C       1.788699000     1.702330000     4.860306000
C       3.132229000     1.416585000     5.529613000
C       4.189598000     2.415447000     5.054043000
C       3.740304000     3.859772000     5.284082000
C       2.385219000     4.131700000     4.627904000
C       1.322908000     3.137509000     5.101807000
C       0.321907000     0.540270000     6.568430000
C      -0.615808000    -0.434392000     6.517868000
N      -0.723788000    -0.819081000     5.195262000
C      -1.647912000    -1.838937000     4.675838000
C      -1.429584000    -3.190102000     5.352195000
C      -2.369106000    -4.238371000     4.751267000
C      -3.831289000    -3.795285000     4.834631000
C      -4.037789000    -2.425249000     4.185537000
C      -3.099069000    -1.373809000     4.780857000
Au      0.315835000    -0.260014000     2.435253000
Br      0.416153000    -0.573505000     0.019927000
H       1.893561000     1.545730000     3.786197000
H       3.436169000     0.392497000     5.307709000
H       3.022622000     1.492535000     6.615684000
H       4.374121000     2.259310000     3.987024000
H       5.133876000     2.222596000     5.565197000
H       4.490186000     4.552145000     4.898166000
H       3.664722000     4.047460000     6.360200000
H       2.487095000     4.054139000     3.541340000
H       2.055947000     5.150285000     4.838040000
H       1.135372000     3.283869000     6.169932000
H       0.377156000     3.301648000     4.583253000
H       0.702772000     1.098405000     7.402064000
H      -1.201328000    -0.878615000     7.299686000
H      -1.391026000    -1.933836000     3.620652000
H      -1.622434000    -3.099205000     6.425898000
H      -0.387006000    -3.490576000     5.235187000
H      -2.229732000    -5.191433000     5.264019000
H      -2.102560000    -4.400449000     3.704459000
H      -4.137965000    -3.750366000     5.885400000
H      -4.471265000    -4.535089000     4.351646000
H      -5.072847000    -2.100233000     4.302373000
H      -3.851161000    -2.505329000     3.112411000
H      -3.208842000    -0.419402000     4.263409000
H      -3.350176000    -1.203936000     5.832913000
Cl     -1.513939000    -2.646965000     0.509708000
Cl     -2.931021000    -4.182184000     0.847663000