19
energy: -3804054.249000 kJ/mol; low freq (cm^-1): 9.33, 21.67, 31.38
C      -0.109543000    -0.129324000     1.954579000
N      -0.981397000    -0.734231000     2.793159000
C      -2.083642000    -1.587252000     2.371787000
C      -0.743855000    -0.355642000     4.100875000
C       0.304744000     0.498526000     4.074499000
N       0.685021000     0.621024000     2.751803000
C       1.714938000     1.531389000     2.269973000
Au     -0.086963000    -0.207050000    -0.059734000
Br     -0.027506000    -0.340754000    -2.464156000
H      -3.022485000    -1.039260000     2.435055000
H      -2.126162000    -2.470485000     3.005483000
H      -1.915408000    -1.885270000     1.341886000
H      -1.326722000    -0.729011000     4.921939000
H       0.811171000     1.014981000     4.868269000
H       1.301626000     2.531926000     2.150918000
H       2.071810000     1.178469000     1.307564000
H       2.537897000     1.551943000     2.980304000
I      -1.990239000     2.172402000     0.361344000
I      -3.698471000     4.304067000     0.859974000