19
energy: -32958294743205.089844 kJ/mol; low freq (cm^-1) (cm^-1) (cm^-1): 14.0, 25.4, 56.42
C       0.076438000    -0.220970000     4.214754000
N      -0.911708000    -0.513009000     5.094862000
C      -2.177360000    -1.140706000     4.745540000
C      -0.558611000    -0.128316000     6.375137000
C       0.676925000     0.414307000     6.291193000
N       1.052301000     0.350184000     4.962739000
C       2.328676000     0.832542000     4.447612000
Au      0.139225000    -0.533341000     2.245993000
Cl      0.362885000    -0.826492000    -0.035997000
H      -3.003113000    -0.466553000     4.967720000
H      -2.300487000    -2.066148000     5.305688000
H      -2.164892000    -1.359148000     3.682415000
H      -1.207331000    -0.273061000     7.218821000
H       1.313147000     0.833297000     7.048341000
H       2.432472000     1.896290000     4.653555000
H       2.356095000     0.669755000     3.375064000
H       3.147024000     0.287980000     4.915107000
Cl      2.938802000     0.340640000     0.482906000
Cl      4.776671000     1.193282000     0.962364000