19
energy: -31390069337199.863281 kJ/mol; low freq (cm^-1) (cm^-1) (cm^-1): 13.21, 20.49, 47.16
C       0.188606000    -0.139640000     4.205647000
N      -0.749916000    -0.765367000     4.957011000
C      -1.730827000    -1.720637000     4.451856000
C      -0.635733000    -0.400476000     6.284731000
C       0.392919000     0.473561000     6.363874000
N       0.887716000     0.621893000     5.081500000
C       2.000953000     1.489518000     4.726720000
Au      0.446173000    -0.343276000     2.238821000
Cl      0.621657000    -0.692321000    -0.047256000
H      -2.723756000    -1.438512000     4.795521000
H      -1.492736000    -2.723286000     4.802546000
H      -1.707399000    -1.709349000     3.367043000
H      -1.288368000    -0.787912000     7.044685000
H       0.808888000     0.996034000     7.205022000
H       1.748892000     2.527487000     4.938350000
H       2.195530000     1.374259000     3.665135000
H       2.887299000     1.206011000     5.291725000
Br     -1.500654000    -2.569137000     0.493066000
Br     -3.247937000    -4.075610000     1.087817000