19
energy: -3486076.154000 kJ/mol; low freq (cm^-1): 5.04, 20.63, 24.58
C      -0.055232000    -0.151914000     1.957465000
N      -0.934555000    -0.753296000     2.790228000
C      -2.052212000    -1.578671000     2.353588000
C      -0.701521000    -0.379228000     4.099933000
C       0.354613000     0.465957000     4.081249000
N       0.741473000     0.589081000     2.760072000
C       1.788063000     1.484484000     2.287156000
Au     -0.065655000    -0.187027000    -0.072492000
I      -0.076966000    -0.227323000    -2.647924000
H      -2.948265000    -0.968190000     2.251635000
H      -1.809054000    -2.014663000     1.389743000
H      -2.222135000    -2.369317000     3.080498000
H      -1.291698000    -0.749429000     4.917222000
H       0.863138000     0.974164000     4.879026000
H       1.408555000     2.503599000     2.228400000
H       2.098793000     1.164151000     1.297766000
H       2.635101000     1.443540000     2.968047000
I      -2.055023000     2.120392000     0.352043000
I      -3.832366000     4.140480000     1.050448000