19
energy: -4439963.686000 kJ/mol; low freq (cm^-1): 13.18, 22.13, 41.06
C      -0.065842000     0.250828000     4.325821000
N      -1.096932000    -0.254640000     5.045084000
C      -2.383509000    -0.669991000     4.493180000
C      -0.780101000    -0.295994000     6.388926000
C       0.475844000     0.190453000     6.511282000
N       0.898992000     0.520753000     5.237212000
C       2.203031000     1.087145000     4.926307000
Au     -0.043013000     0.526115000     2.342284000
Br     -0.220545000     0.787922000    -0.081903000
H      -3.157138000     0.046187000     4.763772000
H      -2.642868000    -1.653786000     4.877673000
H      -2.305566000    -0.712810000     3.412040000
H      -1.465498000    -0.666875000     7.128028000
H       1.097308000     0.324234000     7.376954000
H       2.313621000     2.057184000     5.408454000
H       2.271872000     1.208883000     3.849940000
H       2.990493000     0.417430000     5.267773000
Br     -2.923642000    -0.194676000     0.577754000
Br     -5.076829000    -0.990177000     1.294526000