19
energy: -3917834.580000 kJ/mol; low freq (cm^-1): 12.7, 23.15, 36.98
C       0.085408000     0.144787000     1.934942000
N      -0.710492000    -0.602854000     2.733846000
C      -1.721822000    -1.534438000     2.253016000
C      -0.349050000    -0.454883000     4.059088000
C       0.688262000     0.412953000     4.085604000
N       0.938068000     0.774612000     2.775628000
C       2.038096000     1.630987000     2.354300000
Au      0.085825000     0.196770000    -0.070852000
Cl      0.054234000     0.295605000    -2.353778000
H      -2.545310000    -1.567933000     2.962046000
H      -1.289096000    -2.527216000     2.138862000
H      -2.083895000    -1.192245000     1.288739000
H      -0.860207000    -0.964383000     4.854305000
H       1.254939000     0.807451000     4.908125000
H       2.085420000     2.506462000     2.998203000
H       1.862312000     1.940695000     1.329085000
H       2.977178000     1.081926000     2.404281000
I       2.002924000    -2.159519000     0.418036000
I       3.723557000    -4.277642000     0.920584000