19
energy: -4667459.372000 kJ/mol; low freq (cm^-1): 15.79, 30.57, 44.86
C      -0.124720000    -0.090588000     1.962076000
N      -1.008691000    -0.679978000     2.799732000
C      -2.131598000    -1.508782000     2.382149000
C      -0.740281000    -0.340657000     4.112120000
C       0.338291000     0.474393000     4.091763000
N       0.703428000     0.616932000     2.765729000
C       1.812854000     1.439386000     2.304661000
Au     -0.097418000    -0.179089000    -0.051670000
Br      0.010148000    -0.325629000    -2.455034000
H      -3.067920000    -0.984701000     2.563741000
H      -2.115586000    -2.448572000     2.930650000
H      -2.036287000    -1.706493000     1.319708000
H      -1.330904000    -0.704907000     4.931859000
H       0.871294000     0.956436000     4.889893000
H       1.644496000     2.478441000     2.582328000
H       1.869802000     1.361672000     1.223527000
H       2.744917000     1.088285000     2.744108000
Cl     -2.407442000     1.435382000     0.299988000
Cl     -4.150498000     2.565434000     0.628195000