19
energy: -30605734479220.968750 kJ/mol; low freq (cm^-1) (cm^-1) (cm^-1): 10.56, 25.79, 39.64
C      -0.126055000    -0.098797000     1.964452000
N      -0.999170000    -0.702610000     2.802909000
C      -2.118378000    -1.535383000     2.383771000
C      -0.734302000    -0.357762000     4.114418000
C       0.330667000     0.475140000     4.091594000
N       0.691896000     0.622249000     2.765265000
C       1.776330000     1.475703000     2.300641000
Au     -0.103049000    -0.181965000    -0.050614000
Br      0.006266000    -0.336868000    -2.452119000
H      -3.055731000    -1.006748000     2.546858000
H      -2.110962000    -2.468033000     2.944197000
H      -2.011781000    -1.746800000     1.324917000
H      -1.317564000    -0.731367000     4.935183000
H       0.857788000     0.965625000     4.888474000
H       1.559365000     2.514877000     2.541625000
H       1.859740000     1.368398000     1.223839000
H       2.711776000     1.176366000     2.769789000
Br     -2.279589000     1.677657000     0.302633000
Br     -4.116297000     3.187807000     0.627692000