19
energy: -28413918989427.492188 kJ/mol; low freq (cm^-1) (cm^-1) (cm^-1): 13.43, 26.24, 39.81
C       0.180806000    -0.127222000     4.475856000
N      -0.738165000    -0.823287000     5.186343000
C      -1.696492000    -1.770922000     4.623242000
C      -0.632187000    -0.536207000     6.533254000
C       0.372423000     0.359737000     6.665872000
N       0.859737000     0.599894000     5.394638000
C       1.959437000     1.504229000     5.093138000
Au      0.438407000    -0.211592000     2.477817000
I       0.561118000    -0.516097000    -0.110406000
H      -2.697752000    -1.529563000     4.972881000
H      -1.667121000    -1.701676000     3.541134000
H      -1.438672000    -2.785645000     4.920495000
H      -1.273655000    -0.986083000     7.267974000
H       0.774645000     0.842157000     7.537135000
H       1.730153000     2.503246000     5.459689000
H       2.089393000     1.534041000     4.015896000
H       2.876335000     1.145470000     5.557877000
Br     -1.670824000    -2.427816000     0.735840000
Br     -3.419724000    -3.885564000     1.609808000