19
energy: -29982132025750.187500 kJ/mol; low freq (cm^-1) (cm^-1) (cm^-1): 15.49, 29.27, 41.12
C      -0.167391000     0.105177000     4.467949000
N      -0.889609000    -0.589500000     5.378278000
C      -2.027405000    -1.440091000     5.062893000
C      -0.399843000    -0.380886000     6.654390000
C       0.650413000     0.462962000     6.533342000
N       0.781654000     0.748786000     5.188322000
C       1.781155000     1.658554000     4.634177000
Au     -0.396054000     0.226565000     2.468969000
I      -0.442837000     0.595065000    -0.108719000
H      -2.924517000    -1.059032000     5.548254000
H      -2.167770000    -1.432594000     3.986575000
H      -1.835731000    -2.458297000     5.397342000
H      -0.831470000    -0.847286000     7.520277000
H       1.308897000     0.875757000     7.274688000
H       1.499257000     2.692037000     4.826412000
H       1.844600000     1.505935000     3.562117000
H       2.747682000     1.451773000     5.087466000
Cl      1.760760000     2.381675000     0.826318000
Cl      3.315927000     3.622875000     1.649431000