19
energy: -32173999403940.359375 kJ/mol; low freq (cm^-1) (cm^-1) (cm^-1): 15.15, 28.07, 46.36
C      -0.075962000     0.216025000     4.325325000
N      -1.081447000    -0.326275000     5.054178000
C      -2.352559000    -0.795004000     4.510941000
C      -0.755494000    -0.347046000     6.396704000
C       0.480331000     0.190630000     6.508253000
N       0.882185000     0.530325000     5.229577000
C       2.160807000     1.145116000     4.905525000
Au     -0.078259000     0.473775000     2.339507000
Br     -0.289131000     0.703057000    -0.077606000
H      -3.155948000    -0.119088000     4.798352000
H      -2.562140000    -1.794479000     4.885788000
H      -2.283183000    -0.821090000     3.428422000
H      -1.421048000    -0.739699000     7.142681000
H       1.100780000     0.355264000     7.369357000
H       2.245882000     2.111618000     5.399729000
H       2.206761000     1.283412000     3.829912000
H       2.976998000     0.498736000     5.223987000
Cl     -2.927648000    -0.337135000     0.622747000
Cl     -4.796918000    -1.081091000     1.251728000