19
energy: -24030465631452.675781 kJ/mol; low freq (cm^-1) (cm^-1) (cm^-1): 10.08, 18.73, 37.76
C      -0.024800000     0.283975000     4.493607000
N      -1.100186000    -0.154061000     5.190291000
C      -2.405873000    -0.469734000     4.618977000
C      -0.797994000    -0.268472000     6.533555000
C       0.493195000     0.106304000     6.678504000
N       0.952280000     0.441833000     5.418679000
C       2.303935000     0.901023000     5.134728000
Au      0.078482000     0.620062000     2.506357000
I       0.063080000     1.007536000    -0.074775000
H      -3.169415000     0.160466000     5.070373000
H      -2.376331000    -0.285440000     3.550404000
H      -2.644125000    -1.516733000     4.795127000
H      -1.518737000    -0.601722000     7.256820000
H       1.115752000     0.163279000     7.551892000
H       2.507910000     1.820146000     5.681535000
H       2.381621000     1.089643000     4.068587000
H       3.024968000     0.137318000     5.421542000
I      -2.973438000    -0.042274000     0.607743000
I      -5.489540000    -0.940720000     1.454536000