19
energy: -4121978.564000 kJ/mol; low freq (cm^-1): 11.66, 26.68, 33.35
C      -0.070055000    -0.092375000     1.968750000
N      -0.959349000    -0.685156000     2.797397000
C      -2.110134000    -1.467330000     2.365229000
C      -0.677459000    -0.381161000     4.115325000
C       0.417549000     0.412412000     4.107306000
N       0.778026000     0.577381000     2.782699000
C       1.892896000     1.398331000     2.331825000
Au     -0.084305000    -0.095323000    -0.063584000
I      -0.037713000    -0.117863000    -2.638587000
H      -3.017367000    -0.871732000     2.446993000
H      -1.966672000    -1.749155000     1.327302000
H      -2.191736000    -2.361913000     2.978755000
H      -1.269366000    -0.754411000     4.930059000
H       0.966523000     0.862360000     4.913314000
H       1.692233000     2.447758000     2.541160000
H       2.007459000     1.263255000     1.260917000
H       2.806151000     1.090870000     2.837701000
Br     -2.422391000     1.570528000     0.255573000
Br     -4.403099000     2.831349000     0.765971000