19
energy: -26222339350909.179688 kJ/mol; low freq (cm^-1) (cm^-1) (cm^-1): 9.94, 16.89, 38.37
C      -0.259785000     0.164974000     4.330247000
N      -0.929877000    -0.605367000     5.221019000
C      -1.967313000    -1.566827000     4.877615000
C      -0.486133000    -0.365288000     6.507886000
C       0.480451000     0.575768000     6.415995000
N       0.608949000     0.888696000     5.076387000
C       1.537015000     1.888000000     4.556730000
Au     -0.489189000     0.246566000     2.340878000
Br     -0.679719000     0.439247000    -0.089439000
H      -2.887389000    -1.324694000     5.406730000
H      -1.647214000    -2.573294000     5.142636000
H      -2.139641000    -1.512556000     3.807343000
H      -0.889097000    -0.879422000     7.360433000
H       1.080999000     1.042936000     7.174050000
H       1.201070000     2.888007000     4.825263000
H       1.576067000     1.806763000     3.475512000
H       2.528215000     1.711733000     4.968513000
I       1.582064000     2.549537000     0.499686000
I       3.555810000     4.358970000     1.247623000