19
energy: -4553737.484000 kJ/mol; low freq (cm^-1): 9.63, 26.12, 46.12
C       0.106560000     0.120149000     1.944197000
N      -0.708045000    -0.604771000     2.745598000
C      -1.768859000    -1.487472000     2.280893000
C      -0.364970000    -0.433290000     4.073650000
C       0.684709000     0.418752000     4.097331000
N       0.958799000     0.750746000     2.784406000
C       2.067935000     1.598623000     2.368886000
Au      0.101938000     0.179742000    -0.062145000
Cl      0.023847000     0.301105000    -2.342901000
H      -2.711801000    -1.212275000     2.749683000
H      -1.524444000    -2.520288000     2.523107000
H      -1.854616000    -1.383738000     1.203998000
H      -0.892066000    -0.922669000     4.871191000
H       1.250386000     0.814968000     4.919783000
H       2.031907000     2.540582000     2.912469000
H       1.975111000     1.789870000     1.304926000
H       3.012721000     1.092444000     2.558144000
Br      2.258960000    -1.690840000     0.364419000
Br      4.082144000    -3.211544000     0.696427000