19
energy: -32958284521224.972656 kJ/mol; low freq (cm^-1) (cm^-1) (cm^-1): 15.19, 30.66, 52.33
C       0.103902000     0.110258000     1.942792000
N      -0.721328000    -0.600419000     2.747209000
C      -1.812332000    -1.447233000     2.286405000
C      -0.372661000    -0.434868000     4.074870000
C       0.692156000     0.397885000     4.096076000
N       0.969480000     0.724559000     2.782410000
C       2.082110000     1.568365000     2.367144000
Au      0.094858000     0.175358000    -0.062488000
Cl      0.019543000     0.287124000    -2.344998000
H      -2.755465000    -1.101603000     2.706186000
H      -1.633008000    -2.478285000     2.586112000
H      -1.855279000    -1.390788000     1.203353000
H      -0.905991000    -0.915736000     4.873472000
H       1.268165000     0.781969000     4.917143000
H       2.030217000     2.522948000     2.887269000
H       2.007663000     1.732957000     1.297443000
H       3.025827000     1.072759000     2.586278000
Cl      2.396544000    -1.441038000     0.353131000
Cl      4.132880000    -2.573595000     0.694252000