19
energy: -29982058204278.882812 kJ/mol; low freq (cm^-1) (cm^-1) (cm^-1): 16.46, 30.22, 38.7
C      -0.091143000    -0.093851000     1.970379000
N      -0.972736000    -0.687627000     2.806994000
C      -2.106104000    -1.501832000     2.388368000
C      -0.682082000    -0.380931000     4.122722000
C       0.408445000     0.418288000     4.105360000
N       0.758230000     0.583213000     2.777813000
C       1.874641000     1.397421000     2.319018000
Au     -0.098074000    -0.127913000    -0.059794000
I      -0.032432000    -0.197258000    -2.635472000
H      -3.037550000    -0.987462000     2.616089000
H      -2.040331000    -1.656990000     1.316721000
H      -2.073015000    -2.462860000     2.898098000
H      -1.267384000    -0.753848000     4.942432000
H       0.958480000     0.875740000     4.906449000
H       1.720398000     2.435909000     2.606951000
H       1.925761000     1.329089000     1.236867000
H       2.804477000     1.031227000     2.750762000
Cl     -2.471099000     1.386180000     0.282936000
Cl     -4.264356000     2.420809000     0.671411000