19
energy: -3917837.900000 kJ/mol; low freq (cm^-1): 9.96, 17.04, 41.65
C       0.046157000    -0.292384000     4.231968000
N      -0.965514000    -0.462962000     5.117436000
C      -2.285500000    -0.979133000     4.786092000
C      -0.574606000    -0.083769000     6.387968000
C       0.708138000     0.332545000     6.291579000
N       1.073961000     0.199369000     4.965852000
C       2.393180000     0.541910000     4.445630000
Au      0.054374000    -0.674281000     2.273188000
Cl      0.169466000    -1.082754000    -0.008533000
H      -3.047906000    -0.250111000     5.055338000
H      -2.466660000    -1.911442000     5.318601000
H      -2.320232000    -1.161384000     3.716662000
H      -1.233896000    -0.141702000     7.233842000
H       1.383208000     0.708004000     7.037837000
H       2.608249000     1.589626000     4.646433000
H       2.402887000     0.372722000     3.373787000
H       3.150291000    -0.083967000     4.914382000
I       3.012981000    -0.018141000     0.341775000
I       5.552046000     0.963346000     0.823978000