33
energy: -5356126.129000 kJ/mol; low freq (cm^-1): 9.98, 24.45, 29.08
C       0.086021000     0.028440000     2.029550000
N      -0.797065000    -0.604112000     2.844230000
C      -1.856698000    -1.452209000     2.397633000
C      -1.588320000    -2.486237000     1.509626000
C      -2.630855000    -3.289126000     1.067824000
C      -3.925793000    -3.070778000     1.523522000
C      -4.181274000    -2.040663000     2.421070000
C      -3.147221000    -1.222507000     2.857248000
C      -0.564757000    -0.279900000     4.174109000
C       0.491414000     0.560018000     4.189120000
N       0.884711000     0.732975000     2.869975000
C       1.954074000     1.587641000     2.457342000
C       2.924370000     1.107856000     1.588571000
C       3.929147000     1.963200000     1.157847000
C       3.968838000     3.278520000     1.605354000
C       2.998839000     3.742984000     2.485839000
C       1.983196000     2.898980000     2.911943000
Au      0.104962000     0.032741000    -0.000945000
I       0.125135000    -0.040842000    -2.577258000
H      -0.578367000    -2.654685000     1.167914000
H      -2.426982000    -4.086522000     0.367580000
H      -4.734352000    -3.698567000     1.176529000
H      -5.188199000    -1.860043000     2.769952000
H      -3.342806000    -0.396688000     3.526609000
H      -1.146656000    -0.699810000     4.972057000
H       1.015880000     1.022864000     5.003033000
H       2.883464000     0.085046000     1.246153000
H       4.678686000     1.599175000     0.469779000
H       4.749377000     3.942785000     1.262069000
H       3.013405000     4.770577000     2.819630000
H       1.193598000     3.267011000     3.551054000
Cl     -0.262824000     2.837934000     0.186622000
Cl     -0.392611000     4.889026000     0.640527000