33
energy: -5674103.912000 kJ/mol; low freq (cm^-1): 9.33, 28.7, 30.07
C      -0.153652000     0.010668000     2.009187000
N      -0.892962000    -0.757126000     2.849104000
C      -1.855965000    -1.730174000     2.436145000
C      -1.743530000    -3.030986000     2.908196000
C      -2.656411000    -3.987492000     2.487131000
C      -3.664836000    -3.644665000     1.594109000
C      -3.766452000    -2.339123000     1.128185000
C      -2.865358000    -1.372341000     1.553236000
C      -0.541441000    -0.524873000     4.170990000
C       0.425428000     0.416193000     4.157960000
N       0.647801000     0.741192000     2.826541000
C       1.631183000     1.678261000     2.383110000
C       1.281859000     2.674732000     1.480522000
C       2.253295000     3.564054000     1.042229000
C       3.556679000     3.468045000     1.515787000
C       3.892610000     2.474444000     2.427910000
C       2.931101000     1.570687000     2.860756000
Au     -0.145291000    -0.015311000    -0.005678000
Br     -0.148534000     0.043184000    -2.416123000
H      -0.924282000    -3.300178000     3.559115000
H      -2.560817000    -5.005589000     2.836480000
H      -4.364908000    -4.395402000     1.255496000
H      -4.545801000    -2.069309000     0.429895000
H      -2.934849000    -0.356032000     1.196341000
H      -1.031403000    -1.024948000     4.984351000
H       0.948779000     0.904722000     4.957365000
H       0.265360000     2.747127000     1.124736000
H       1.987936000     4.332686000     0.330528000
H       4.309754000     4.162587000     1.171141000
H       4.907219000     2.389235000     2.790580000
H       3.191089000     0.772264000     3.541336000
Cl      0.653148000    -2.705752000     0.325476000
Cl      1.095612000    -4.715300000     0.763011000