33
energy: -37544794285742.976562 kJ/mol; low freq (cm^-1) (cm^-1) (cm^-1): 5.87, 26.84, 29.02
C      -0.129684000     0.015049000     2.021275000
N      -0.876135000    -0.748219000     2.858238000
C      -1.828355000    -1.730237000     2.440346000
C      -1.696863000    -3.033103000     2.901083000
C      -2.592846000    -3.999534000     2.467462000
C      -3.603414000    -3.663021000     1.574440000
C      -3.724723000    -2.354841000     1.120884000
C      -2.839538000    -1.378459000     1.557691000
C      -0.545012000    -0.499869000     4.182147000
C       0.416519000     0.447135000     4.173115000
N       0.655461000     0.759350000     2.841986000
C       1.637827000     1.698206000     2.399953000
C       1.288861000     2.688432000     1.490391000
C       2.259082000     3.578494000     1.050834000
C       3.560810000     3.488987000     1.530156000
C       3.896146000     2.501755000     2.449423000
C       2.935855000     1.597371000     2.883729000
Au     -0.071767000    -0.035051000     0.004469000
Br      0.016186000    -0.017738000    -2.403231000
H      -0.873166000    -3.296135000     3.548814000
H      -2.479307000    -5.020106000     2.803444000
H      -4.289453000    -4.421615000     1.224844000
H      -4.506220000    -2.091405000     0.422576000
H      -2.922087000    -0.359839000     1.209897000
H      -1.042775000    -0.996064000     4.993193000
H       0.926258000     0.946523000     4.974643000
H       0.273177000     2.756491000     1.131073000
H       1.994053000     4.342386000     0.333942000
H       4.313208000     4.183741000     1.184515000
H       4.909587000     2.421757000     2.816457000
H       3.195410000     0.803608000     3.569891000
Br      0.650249000    -2.817995000     0.184451000
Br      1.061520000    -5.116431000     0.733016000