33
energy: -5128638.290000 kJ/mol; low freq (cm^-1): 8.61, 24.86, 28.74
C      -0.074671000     0.144344000     4.612368000
N      -0.871152000    -0.595923000     5.423217000
C      -1.995420000    -1.363788000     4.978341000
C      -1.830795000    -2.304015000     3.969761000
C      -2.935481000    -3.008101000     3.513373000
C      -4.187003000    -2.785218000     4.073876000
C      -4.336308000    -1.857230000     5.097636000
C      -3.239275000    -1.135521000     5.551437000
C      -0.476940000    -0.479394000     6.747103000
C       0.594923000     0.340957000     6.763708000
N       0.835454000     0.710825000     5.446961000
C       1.880564000     1.597788000     5.044686000
C       2.718758000     1.251204000     3.992404000
C       3.723156000     2.128963000     3.607835000
C       3.897958000     3.333788000     4.278934000
C       3.060490000     3.665963000     5.337333000
C       2.043963000     2.800750000     5.720521000
Au     -0.288962000     0.368058000     2.618243000
I      -0.654581000     0.571579000     0.053261000
H      -0.855023000    -2.467285000     3.537859000
H      -2.825359000    -3.714059000     2.704433000
H      -5.044718000    -3.321430000     3.695008000
H      -5.310711000    -1.674704000     5.528487000
H      -3.351114000    -0.382111000     6.318714000
H      -0.974718000    -1.010219000     7.536020000
H       1.222964000     0.668196000     7.569998000
H       2.581753000     0.309362000     3.483456000
H       4.372258000     1.865727000     2.784859000
H       4.682762000     4.012768000     3.976667000
H       3.186405000     4.605352000     5.856920000
H       1.368057000     3.065697000     6.521368000
Br     -2.871461000    -1.461962000     0.163415000
Br     -4.672592000    -3.114161000     0.249445000