33
energy: -5787886.863000 kJ/mol; low freq (cm^-1): 6.0, 30.46, 33.31
C       0.080235000    -0.106175000     4.319306000
N      -0.806140000    -0.687254000     5.170522000
C      -1.797365000    -1.649864000     4.794866000
C      -2.656458000    -1.386456000     3.734861000
C      -3.594693000    -2.341877000     3.367717000
C      -3.683155000    -3.540395000     4.066740000
C      -2.829043000    -3.788335000     5.135972000
C      -1.876512000    -2.844775000     5.500770000
C      -0.596902000    -0.257717000     6.473736000
C       0.431134000     0.615147000     6.437380000
N       0.832316000     0.704848000     5.111034000
C       1.918442000     1.517677000     4.661465000
C       1.742700000     2.379389000     3.585876000
C       2.811729000     3.153652000     3.155563000
C       4.039103000     3.078621000     3.804469000
C       4.201181000     2.221203000     4.886634000
C       3.141338000     1.432654000     5.315939000
Au      0.250513000    -0.420041000     2.356053000
Cl      0.405314000    -0.792237000     0.082839000
H      -2.583279000    -0.453251000     3.196803000
H      -4.245708000    -2.152862000     2.526670000
H      -4.411616000    -4.283020000     3.771580000
H      -2.887994000    -4.723408000     5.676385000
H      -1.183468000    -3.044277000     6.307024000
H      -1.214964000    -0.587953000     7.286613000
H       0.890323000     1.200665000     7.211286000
H       0.784486000     2.435365000     3.092120000
H       2.680917000     3.817625000     2.312716000
H       4.868050000     3.684023000     3.465524000
H       5.156118000     2.152085000     5.388843000
H       3.267475000     0.739419000     6.136023000
Cl     -2.132197000    -1.988755000    -0.105981000
Cl     -4.015981000    -2.880828000    -0.271207000