33
energy: -5356139.340000 kJ/mol; low freq (cm^-1): 11.34, 25.74, 29.59
C      -0.218844000     0.204646000     4.597294000
N      -0.954774000    -0.602460000     5.402845000
C      -2.144627000    -1.294810000     5.007629000
C      -2.143677000    -2.082767000     3.864148000
C      -3.313295000    -2.727341000     3.483645000
C      -4.463606000    -2.598775000     4.252884000
C      -4.450091000    -1.818265000     5.403689000
C      -3.289676000    -1.156618000     5.782861000
C      -0.422152000    -0.642646000     6.682993000
C       0.673204000     0.145725000     6.675019000
N       0.790626000     0.652644000     5.388005000
C       1.826942000     1.543661000     4.970946000
C       2.555168000     1.269338000     3.820104000
C       3.552237000     2.149737000     3.422751000
C       3.829032000     3.283900000     4.177453000
C       3.101776000     3.542850000     5.333353000
C       2.093028000     2.675241000     5.731679000
Au     -0.580800000     0.621196000     2.658071000
I      -1.084984000     0.963654000     0.131008000
H      -1.247841000    -2.188485000     3.271799000
H      -3.311673000    -3.327764000     2.585735000
H      -5.371478000    -3.103488000     3.953467000
H      -5.345787000    -1.709187000     5.999015000
H      -3.278061000    -0.519469000     6.656180000
H      -0.852309000    -1.247763000     7.457925000
H       1.392034000     0.365964000     7.440839000
H       2.339842000     0.381295000     3.245694000
H       4.115113000     1.943486000     2.523583000
H       4.607621000     3.965231000     3.864503000
H       3.307584000     4.427653000     5.919063000
H       1.501448000     2.884736000     6.611797000
Cl     -1.557334000    -1.925277000     0.166553000
Cl     -1.888301000    -4.064747000     0.275116000