33
energy: -30969542820621.792969 kJ/mol; low freq (cm^-1) (cm^-1) (cm^-1): 7.47, 23.33, 28.61
C      -0.005921000     0.084333000     4.567540000
N      -0.870158000    -0.593730000     5.362389000
C      -1.926973000    -1.430415000     4.876673000
C      -1.624883000    -2.504431000     4.051517000
C      -2.658933000    -3.285886000     3.553963000
C      -3.975680000    -2.999766000     3.889958000
C      -4.264389000    -1.927121000     4.724631000
C      -3.238995000    -1.133851000     5.220163000
C      -0.615840000    -0.342349000     6.701433000
C       0.438261000     0.500238000     6.745433000
N       0.807391000     0.748110000     5.429453000
C       1.875739000     1.615320000     5.046441000
C       2.809233000     1.192646000     4.108309000
C       3.835475000     2.050845000     3.737987000
C       3.936803000     3.313081000     4.311601000
C       3.003332000     3.722206000     5.256599000
C       1.964850000     2.876093000     5.623389000
Au     -0.073570000     0.136448000     2.554332000
I      -0.352180000     0.152477000    -0.029863000
H      -0.597470000    -2.711803000     3.792512000
H      -2.433398000    -4.110069000     2.892718000
H      -4.780360000    -3.591851000     3.479740000
H      -5.290524000    -1.685055000     4.958463000
H      -3.453680000    -0.272964000     5.837695000
H      -1.186417000    -0.805032000     7.484034000
H       0.976094000     0.917393000     7.575094000
H       2.727133000     0.207830000     3.674619000
H       4.558718000     1.728061000     3.002660000
H       4.738677000     3.976951000     4.020772000
H       3.071822000     4.706213000     5.698510000
H       1.215918000     3.199119000     6.332662000
I      -3.468797000    -0.420945000     0.814044000
I      -6.154879000    -0.888242000     1.462175000