33
energy: -5560382.456000 kJ/mol; low freq (cm^-1): 2.6, 22.75, 29.85
C      -0.148830000     0.023431000     2.014362000
N      -0.980701000    -0.629653000     2.863810000
C      -2.091377000    -1.433677000     2.456808000
C      -3.080477000    -0.888320000     1.650419000
C      -4.128008000    -1.694851000     1.225934000
C      -4.187322000    -3.027622000     1.616158000
C      -3.194272000    -3.559353000     2.431185000
C      -2.136929000    -2.764324000     2.850421000
C      -0.547899000    -0.501937000     4.174986000
C       0.566242000     0.259485000     4.145478000
N       0.794797000     0.581236000     2.814544000
C       1.917801000     1.333558000     2.350646000
C       1.725326000     2.409306000     1.493498000
C       2.828487000     3.114773000     1.032640000
C       4.108899000     2.756889000     1.438485000
C       4.288813000     1.684919000     2.304852000
C       3.192569000     0.964091000     2.759984000
Au     -0.201279000     0.021339000     0.009385000
Cl     -0.275248000     0.092729000    -2.274134000
H      -3.023194000     0.148060000     1.353454000
H      -4.895018000    -1.280042000     0.587688000
H      -5.000913000    -3.653794000     1.278054000
H      -3.225124000    -4.600419000     2.719338000
H      -1.331672000    -3.180794000     3.438044000
H      -1.086802000    -0.937433000     4.994524000
H       1.194356000     0.626584000     4.934331000
H       0.726677000     2.684975000     1.190142000
H       2.683922000     3.945215000     0.356474000
H       4.964835000     3.308630000     1.076227000
H       5.283386000     1.395450000     2.613398000
H       3.324670000     0.105453000     3.402953000
Br      0.599608000    -2.708851000     0.424713000
Br      1.079061000    -5.008686000     0.915109000