33
energy: -4810708.436000 kJ/mol; low freq (cm^-1): 8.43, 25.69, 29.24
C      -0.041013000    -0.056627000     2.095915000
N      -0.876913000    -0.752389000     2.910619000
C      -1.800915000    -1.753425000     2.481534000
C      -1.828816000    -2.975578000     3.142059000
C      -2.728892000    -3.951443000     2.734238000
C      -3.584903000    -3.709215000     1.666438000
C      -3.545260000    -2.484322000     1.010184000
C      -2.658833000    -1.497478000     1.419277000
C      -0.686163000    -0.389334000     4.238002000
C       0.276679000     0.556685000     4.248675000
N       0.655606000     0.754964000     2.930203000
C       1.675902000     1.666159000     2.504335000
C       1.364163000     2.667583000     1.595850000
C       2.369077000     3.519820000     1.158612000
C       3.665208000     3.375737000     1.636178000
C       3.962720000     2.375043000     2.553059000
C       2.967432000     1.511674000     2.989342000
Au      0.261087000    -0.206691000     0.123300000
Br      0.789217000    -0.322989000    -2.253894000
H      -1.137486000    -3.168460000     3.950248000
H      -2.748599000    -4.905349000     3.242131000
H      -4.278323000    -4.473467000     1.344855000
H      -4.208595000    -2.291092000     0.179140000
H      -2.626420000    -0.540871000     0.920805000
H      -1.270806000    -0.811962000     5.032423000
H       0.706585000     1.121546000     5.053748000
H       0.354401000     2.762570000     1.225847000
H       2.139039000     4.287352000     0.433738000
H       4.450504000     4.022969000     1.274357000
H       4.977016000     2.242780000     2.899474000
H       3.194444000     0.704144000     3.671094000
I       3.647569000     0.543722000    -1.267839000
I       6.201069000     1.297410000    -0.468799000