33
energy: -5128635.777000 kJ/mol; low freq (cm^-1): 6.52, 20.4, 27.68
C      -0.068112000    -0.001737000     2.131876000
N      -0.846951000    -0.761483000     2.944276000
C      -1.909601000    -1.607540000     2.503350000
C      -1.696749000    -2.502795000     1.462548000
C      -2.743676000    -3.308102000     1.035549000
C      -3.986752000    -3.230256000     1.653073000
C      -4.186103000    -2.338100000     2.700035000
C      -3.148728000    -1.518640000     3.125520000
C      -0.501117000    -0.571899000     4.276395000
C       0.518949000     0.312884000     4.291271000
N       0.777334000     0.645935000     2.971258000
C       1.767370000     1.588736000     2.541677000
C       2.741128000     1.193224000     1.635329000
C       3.660042000     2.128462000     1.179358000
C       3.609775000     3.438593000     1.637100000
C       2.638652000     3.818812000     2.555188000
C       1.708401000     2.894390000     3.009671000
Au     -0.137762000     0.276298000     0.137258000
I      -0.089529000     0.851363000    -2.395678000
H      -0.726117000    -2.561118000     0.994278000
H      -2.583646000    -4.000077000     0.220953000
H      -4.798342000    -3.860250000     1.317333000
H      -5.153294000    -2.266315000     3.177136000
H      -3.305057000    -0.798566000     3.916330000
H      -0.987764000    -1.103462000     5.071525000
H       1.097697000     0.713570000     5.101591000
H       2.764364000     0.173491000     1.281556000
H       4.405535000     1.833992000     0.454903000
H       4.307806000     4.170690000     1.259166000
H       2.581826000     4.844449000     2.889246000
H       0.922154000     3.188834000     3.690638000
Br      1.001767000     3.525552000    -1.422548000
Br      1.831729000     5.689313000    -0.675057000