33
energy: -4810708.423000 kJ/mol; low freq (cm^-1): 8.03, 25.39, 28.77
C       0.016118000     0.032182000     4.397937000
N      -0.736316000    -0.761920000     5.200198000
C      -1.630427000    -1.775166000     4.724453000
C      -1.418526000    -3.095396000     5.098065000
C      -2.266150000    -4.081185000     4.612166000
C      -3.308500000    -3.745659000     3.756903000
C      -3.509904000    -2.421145000     3.390839000
C      -2.673501000    -1.426144000     3.878542000
C      -0.493983000    -0.489907000     6.537634000
C       0.419098000     0.503766000     6.572996000
N       0.718340000     0.820045000     5.253796000
C       1.672870000     1.808830000     4.864656000
C       1.345314000     2.746093000     3.892942000
C       2.289319000     3.691846000     3.517011000
C       3.542844000     3.710741000     4.117741000
C       3.856595000     2.775076000     5.096421000
C       2.923840000     1.816069000     5.469324000
Au      0.096247000    -0.083308000     2.401813000
Br      0.139060000    -0.368823000    -0.018473000
H      -0.580449000    -3.348478000     5.732177000
H      -2.090552000    -5.114727000     4.871768000
H      -3.944614000    -4.520861000     3.355687000
H      -4.310366000    -2.160060000     2.713695000
H      -2.813602000    -0.393916000     3.594934000
H      -1.010481000    -1.006236000     7.324204000
H       0.856392000     1.033235000     7.397609000
H       0.367573000     2.728272000     3.436577000
H       2.040444000     4.416733000     2.755055000
H       4.273830000     4.449913000     3.821768000
H       4.832948000     2.778882000     5.560086000
H       3.172041000     1.064202000     6.205136000
I      -0.590592000    -3.339856000     0.740762000
I      -1.216046000    -5.981734000     1.334159000