33
energy: -33945715054098.367188 kJ/mol; low freq (cm^-1) (cm^-1) (cm^-1): 8.45, 26.85, 28.19
C       0.016738000    -0.084221000     4.282281000
N      -0.852717000    -0.675171000     5.143722000
C      -1.963592000    -1.487779000     4.761944000
C      -2.855719000    -1.035193000     3.797904000
C      -3.924612000    -1.841051000     3.430771000
C      -4.108994000    -3.080605000     4.032514000
C      -3.216229000    -3.519634000     5.003040000
C      -2.136021000    -2.726352000     5.367423000
C      -0.495283000    -0.415653000     6.460808000
C       0.608157000     0.360741000     6.419112000
N       0.904287000     0.562087000     5.080061000
C       2.019945000     1.320620000     4.598559000
C       1.799923000     2.406371000     3.763043000
C       2.889007000     3.113473000     3.272012000
C       4.180226000     2.742203000     3.623894000
C       4.387427000     1.657559000     4.467314000
C       3.305659000     0.938650000     4.956960000
Au      0.121459000    -0.195978000     2.296158000
Cl      0.382122000    -0.306101000    -0.001992000
H      -2.708497000    -0.068680000     3.340959000
H      -4.615425000    -1.495220000     2.675028000
H      -4.943537000    -3.703757000     3.743532000
H      -3.349096000    -4.486680000     5.467210000
H      -1.418944000    -3.074755000     6.097318000
H      -1.074269000    -0.777679000     7.288593000
H       1.189503000     0.808615000     7.202372000
H       0.791484000     2.678970000     3.490355000
H       2.726295000     3.946615000     2.603620000
H       5.026232000     3.278750000     3.220534000
H       5.392421000     1.350047000     4.716936000
H       3.455210000     0.070457000     5.583410000
I       3.345229000     0.189743000     0.541705000
I       6.040050000     0.624981000     0.979568000