33
energy: -4924486.059000 kJ/mol; low freq (cm^-1): 8.62, 27.44, 29.55
C       0.117839000    -0.015970000     2.098715000
N      -0.758684000    -0.614900000     2.944083000
C      -1.795143000    -1.511882000     2.527532000
C      -2.773709000    -1.066032000     1.650531000
C      -3.750906000    -1.953240000     1.220119000
C      -3.751104000    -3.266338000     1.672589000
C      -2.770761000    -3.698584000     2.557379000
C      -1.784346000    -2.821765000     2.987092000
C      -0.494115000    -0.272105000     4.260680000
C       0.561087000     0.569464000     4.238519000
N       0.922310000     0.724378000     2.905972000
C       2.017776000     1.527201000     2.463711000
C       1.841405000     2.428088000     1.421087000
C       2.917853000     3.196107000     0.998815000
C       4.154397000     3.075648000     1.622589000
C       4.317657000     2.177636000     2.670686000
C       3.250125000     1.395303000     3.091607000
Au      0.205362000    -0.327250000     0.132832000
Cl      0.235876000    -0.829667000    -2.128006000
H      -2.755684000    -0.045177000     1.299480000
H      -4.503627000    -1.619348000     0.520573000
H      -4.497196000    -3.961275000     1.316350000
H      -2.753081000    -4.727638000     2.884822000
H      -0.993480000    -3.155540000     3.644118000
H      -1.093709000    -0.636176000     5.073082000
H       1.064950000     1.093055000     5.028163000
H       0.875885000     2.519125000     0.947634000
H       2.786135000     3.892345000     0.182822000
H       4.988929000     3.677063000     1.290636000
H       5.279421000     2.072774000     3.152617000
H       3.376884000     0.671514000     3.884304000
I      -0.991405000    -3.498932000    -1.305434000
I      -2.084922000    -5.941300000    -0.611791000