33
energy: -5446610.282000 kJ/mol; low freq (cm^-1): 6.77, 22.92, 28.4
C       0.088277000    -0.058757000     4.448546000
N      -0.728964000    -0.773165000     5.263215000
C      -1.565723000    -1.852936000     4.833920000
C      -1.444669000    -3.090092000     5.452788000
C      -2.237398000    -4.145210000     5.018750000
C      -3.130522000    -3.961960000     3.969536000
C      -3.245607000    -2.717550000     3.362587000
C      -2.468505000    -1.653964000     3.797909000
C      -0.620012000    -0.342864000     6.576817000
C       0.273241000     0.668873000     6.582636000
N       0.694225000     0.838237000     5.270223000
C       1.661470000     1.806683000     4.860668000
C       1.394799000     2.640232000     3.781822000
C       2.348935000     3.569529000     3.390616000
C       3.550849000     3.675103000     4.081100000
C       3.802960000     2.843626000     5.165987000
C       2.860240000     1.901490000     5.556531000
Au      0.358759000    -0.348449000     2.484837000
Br      0.636595000    -0.758990000     0.099119000
H      -0.718926000    -3.231213000     6.241593000
H      -2.138793000    -5.114645000     5.486615000
H      -3.725758000    -4.789297000     3.610960000
H      -3.925451000    -2.581210000     2.535435000
H      -2.547357000    -0.684898000     3.329121000
H      -1.206115000    -0.774616000     7.365458000
H       0.622264000     1.300004000     7.377285000
H       0.455452000     2.556678000     3.257026000
H       2.148082000     4.213907000     2.546605000
H       4.289856000     4.401245000     3.773021000
H       4.739492000     2.915551000     5.700782000
H       3.061260000     1.229289000     6.378834000
Br     -1.555168000    -2.655755000     0.040570000
Br     -3.376561000    -4.233730000    -0.032332000