33
energy: -39897333976656.289062 kJ/mol; low freq (cm^-1) (cm^-1) (cm^-1): 8.55, 29.99, 30.36
C      -0.139322000     0.010824000     2.007043000
N      -0.964287000    -0.648013000     2.859751000
C      -2.084282000    -1.442664000     2.461697000
C      -3.064727000    -0.895820000     1.645825000
C      -4.124591000    -1.692398000     1.234198000
C      -4.206355000    -3.016885000     1.647411000
C      -3.222814000    -3.550248000     2.472150000
C      -2.153097000    -2.765196000     2.878705000
C      -0.529535000    -0.516529000     4.170406000
C       0.579727000     0.250985000     4.138002000
N       0.803499000     0.573623000     2.806289000
C       1.919061000     1.337652000     2.344063000
C       1.719017000     2.403692000     1.476435000
C       2.815817000     3.122281000     1.020715000
C       4.097619000     2.788123000     1.442102000
C       4.285259000     1.726413000     2.319333000
C       3.195664000     0.992318000     2.769190000
Au     -0.216542000     0.028375000     0.004161000
Cl     -0.320146000     0.119272000    -2.279015000
H      -2.991183000     0.134149000     1.331246000
H      -4.883990000    -1.275545000     0.588228000
H      -5.030502000    -3.634996000     1.320288000
H      -3.271886000    -4.585015000     2.779739000
H      -1.356390000    -3.184844000     3.475738000
H      -1.064761000    -0.953220000     4.991701000
H       1.207044000     0.622230000     4.925526000
H       0.719567000     2.661189000     1.160401000
H       2.664893000     3.944774000     0.336263000
H       4.948457000     3.350382000     1.084002000
H       5.280926000     1.455532000     2.641061000
H       3.335010000     0.142180000     3.421931000
Cl      0.383587000    -2.710472000     0.377382000
Cl      0.695679000    -4.748301000     0.791941000