33
energy: -5560386.640000 kJ/mol; low freq (cm^-1): 7.96, 27.21, 29.3
C       0.069832000    -0.113289000     4.311547000
N      -0.858857000    -0.643565000     5.150987000
C      -1.948111000    -1.477990000     4.752704000
C      -2.791994000    -1.075881000     3.725159000
C      -3.839508000    -1.903459000     3.344506000
C      -4.050410000    -3.113735000     3.995132000
C      -3.206407000    -3.501719000     5.029051000
C      -2.147651000    -2.686707000     5.408074000
C      -0.588942000    -0.298711000     6.468676000
C       0.520041000     0.469713000     6.450119000
N       0.908572000     0.580942000     5.123441000
C       2.068877000     1.294467000     4.682918000
C       1.957385000     2.239477000     3.671555000
C       3.097138000     2.893724000     3.227009000
C       4.331457000     2.619012000     3.802295000
C       4.428794000     1.685897000     4.827473000
C       3.296321000     1.013057000     5.268407000
Au      0.237221000    -0.331269000     2.336625000
Cl      0.484761000    -0.539045000     0.045073000
H      -2.624466000    -0.131546000     3.230343000
H      -4.492569000    -1.597548000     2.539628000
H      -4.867954000    -3.754038000     3.695216000
H      -3.360236000    -4.445982000     5.532053000
H      -1.467211000    -2.995212000     6.189263000
H      -1.224854000    -0.603901000     7.277413000
H       1.048740000     0.968742000     7.239567000
H       0.995034000     2.444061000     3.227856000
H       3.023698000     3.603697000     2.416974000
H       5.216728000     3.118831000     3.437175000
H       5.389224000     1.461817000     5.269866000
H       3.367456000     0.256497000     6.037362000
Br      2.852967000     1.010502000     0.010447000
Br      4.852531000     2.313588000    -0.017246000