33
energy: -5674109.581000 kJ/mol; low freq (cm^-1): 1.35, 23.67, 30.09
C       0.055341000    -0.049353000     4.439544000
N      -0.751010000    -0.768114000     5.262701000
C      -1.601298000    -1.840397000     4.843590000
C      -1.508376000    -3.066488000     5.489629000
C      -2.316479000    -4.116633000     5.072821000
C      -3.196971000    -3.940917000     4.011804000
C      -3.282854000    -2.708803000     3.375247000
C      -2.491350000    -1.649262000     3.794813000
C      -0.608935000    -0.357083000     6.579911000
C       0.294922000     0.644689000     6.580404000
N       0.689074000     0.828375000     5.261680000
C       1.663774000     1.787197000     4.846987000
C       1.393192000     2.638106000     3.782779000
C       2.356993000     3.554709000     3.385352000
C       3.572457000     3.631142000     4.055651000
C       3.828416000     2.783056000     5.126663000
C       2.876024000     1.853069000     5.522719000
Au      0.267377000    -0.287555000     2.461251000
Br      0.458631000    -0.607512000     0.058647000
H      -0.792279000    -3.204026000     6.287774000
H      -2.240414000    -5.076420000     5.564200000
H      -3.807292000    -4.765056000     3.671113000
H      -3.952737000    -2.576892000     2.539388000
H      -2.551199000    -0.689438000     3.305064000
H      -1.182626000    -0.792662000     7.375448000
H       0.667876000     1.260469000     7.376211000
H       0.444085000     2.576592000     3.272830000
H       2.153386000     4.211492000     2.551636000
H       4.319103000     4.347192000     3.742378000
H       4.775265000     2.832148000     5.645676000
H       3.079598000     1.167421000     6.333212000
Cl     -1.696916000    -2.486219000     0.027395000
Cl     -3.281516000    -3.884197000    -0.035938000