33
energy: -30969542969729.695312 kJ/mol; low freq (cm^-1) (cm^-1) (cm^-1): 7.32, 23.5, 28.8
C      -0.112882000    -0.001420000     2.111101000
N      -0.877485000    -0.766920000     2.932120000
C      -1.924464000    -1.637696000     2.501374000
C      -1.694258000    -2.543203000     1.473212000
C      -2.725698000    -3.373677000     1.056938000
C      -3.970414000    -3.310488000     1.672832000
C      -4.187060000    -2.407855000     2.707286000
C      -3.165394000    -1.563326000     3.121797000
C      -0.533600000    -0.559113000     4.261768000
C       0.471045000     0.342929000     4.267047000
N       0.722300000     0.668278000     2.943405000
C       1.702145000     1.619387000     2.509842000
C       2.683639000     1.230222000     1.609467000
C       3.601730000     2.171019000     1.162734000
C       3.542479000     3.479762000     1.623524000
C       2.561449000     3.854368000     2.533424000
C       1.632482000     2.924437000     2.978629000
Au     -0.211915000     0.249000000     0.114335000
I      -0.256864000     0.754193000    -2.434665000
H      -0.722455000    -2.590113000     1.006105000
H      -2.552158000    -4.073583000     0.251938000
H      -4.769864000    -3.960148000     1.345538000
H      -5.155663000    -2.347624000     3.183130000
H      -3.335658000    -0.835663000     3.902735000
H      -1.010081000    -1.091713000     5.062343000
H       1.044379000     0.760478000     5.072663000
H       2.714468000     0.211149000     1.254386000
H       4.354803000     1.881254000     0.444158000
H       4.240660000     4.216245000     1.253904000
H       2.495668000     4.879476000     2.866597000
H       0.839603000     3.213733000     3.654066000
I       0.773849000     3.667134000    -1.324920000
I       1.632788000     6.184511000    -0.446706000