24
energy: -33354189906522.175781 kJ/mol; low freq (cm^-1) (cm^-1) (cm^-1): 3.29, 24.9, 29.35
C      -2.068845000    -3.655556000     4.529799000
C      -2.104256000    -3.611775000     3.002234000
C      -1.054007000    -2.652958000     2.436640000
C      -1.205792000    -1.253088000     3.051496000
C      -1.168653000    -1.293002000     4.582988000
C      -2.226464000    -2.257280000     5.128282000
P       0.069398000    -0.125190000     2.348457000
Au     -0.079253000     0.099536000     0.095550000
I      -0.682428000     0.128727000    -2.442763000
H      -1.117176000    -4.084112000     4.861556000
H      -2.854860000    -4.313348000     4.904279000
H      -3.091428000    -3.287857000     2.665151000
H      -1.944128000    -4.607834000     2.586795000
H      -1.144936000    -2.594608000     1.351943000
H      -0.051988000    -3.035957000     2.658514000
H      -2.160475000    -0.834469000     2.718845000
H      -1.321544000    -0.292590000     4.992519000
H      -0.176982000    -1.622838000     4.909654000
H      -2.158389000    -2.295177000     6.216900000
H      -3.220552000    -1.869525000     4.887207000
H       1.277451000    -0.622255000     2.878645000
H      -0.046218000     1.055348000     3.109608000
Br     -3.075772000    -1.100239000    -0.815776000
Br     -4.865297000    -2.018075000     0.524373000