24
energy: -4634520.078000 kJ/mol; low freq (cm^-1): 5.58, 26.17, 29.1
C      -1.337784000    -3.530582000     4.851508000
C      -0.654257000    -3.714694000     3.496460000
C       0.034810000    -2.429910000     3.032219000
C      -0.960868000    -1.260831000     3.006458000
C      -1.642328000    -1.065328000     4.365095000
C      -2.321158000    -2.359558000     4.824414000
P      -0.123277000     0.267443000     2.412146000
Au      0.730832000     0.113684000     0.340114000
Cl      1.499711000    -0.269254000    -1.815398000
H      -0.578821000    -3.345491000     5.618883000
H      -1.855520000    -4.446966000     5.139377000
H      -1.392834000    -4.010214000     2.746746000
H       0.077738000    -4.522080000     3.542587000
H       0.471553000    -2.572792000     2.044404000
H       0.854549000    -2.187353000     3.716936000
H      -1.718908000    -1.471517000     2.245717000
H      -2.371443000    -0.254435000     4.312397000
H      -0.890176000    -0.769655000     5.103684000
H      -2.765074000    -2.208540000     5.809918000
H      -3.143288000    -2.592407000     4.141074000
H       0.777168000     0.571700000     3.453186000
H      -1.073546000     1.286198000     2.625194000
I      -0.129780000    -2.887101000    -1.123936000
I      -1.514597000    -5.164241000    -0.439492000