24
energy: -37114265931606.289062 kJ/mol; low freq (cm^-1) (cm^-1) (cm^-1): 12.02, 29.92, 36.46
C      -2.467292000    -3.599627000     6.473107000
C      -2.565773000    -3.303955000     4.976212000
C      -1.413387000    -2.419193000     4.496962000
C      -1.341159000    -1.127502000     5.325449000
C      -1.229034000    -1.420055000     6.825317000
C      -2.384588000    -2.310763000     7.292547000
P       0.024442000    -0.057347000     4.706876000
Au     -0.144200000     0.499346000     2.528824000
Br     -0.571063000     0.930839000     0.170706000
H      -1.575671000    -4.205546000     6.664777000
H      -3.323553000    -4.193793000     6.796508000
H      -3.511541000    -2.798862000     4.761402000
H      -2.573979000    -4.230034000     4.400416000
H      -1.532625000    -2.184340000     3.439931000
H      -0.468996000    -2.963983000     4.600967000
H      -2.249718000    -0.546975000     5.137383000
H      -1.214775000    -0.489170000     7.395596000
H      -0.278875000    -1.927581000     7.020440000
H      -2.265075000    -2.537726000     8.353317000
H      -3.323307000    -1.757177000     7.193511000
H       1.185422000    -0.758506000     5.092876000
H       0.078569000     0.999696000     5.638002000
Cl     -2.590570000    -1.190449000     0.845599000
Cl     -3.956581000    -2.665980000     1.403460000