24
energy: -31162624661317.179688 kJ/mol; low freq (cm^-1) (cm^-1) (cm^-1): 11.81, 26.37, 29.98
C      -1.615012000    -3.768521000     4.509883000
C      -0.780319000    -3.886873000     3.234421000
C      -0.047688000    -2.581702000     2.914848000
C      -1.036689000    -1.409007000     2.838096000
C      -1.870312000    -1.282100000     4.117257000
C      -2.593860000    -2.596564000     4.425812000
P      -0.134288000     0.141905000     2.424301000
Au      0.876889000     0.085451000     0.407762000
Br      1.763390000    -0.256905000    -1.842697000
H      -0.950580000    -3.622457000     5.368111000
H      -2.158784000    -4.697327000     4.690050000
H      -1.430643000    -4.141158000     2.393791000
H      -0.054990000    -4.696762000     3.325291000
H       0.494996000    -2.675439000     1.974491000
H       0.691634000    -2.376044000     3.696079000
H      -1.701003000    -1.575527000     1.984680000
H      -2.591489000    -0.468309000     4.020730000
H      -1.210923000    -1.026179000     4.952967000
H      -3.152308000    -2.495142000     5.358117000
H      -3.327132000    -2.792836000     3.637929000
H       0.669585000     0.368282000     3.559826000
H      -1.089322000     1.160977000     2.612108000
I      -0.586907000    -2.481378000    -1.234088000
I      -2.577008000    -4.309751000    -0.651986000