24
energy: -4634519.949000 kJ/mol; low freq (cm^-1): 14.6, 27.35, 30.64
C      -2.012061000    -3.535013000     6.800551000
C      -1.823837000    -3.652137000     5.287516000
C      -0.791728000    -2.648747000     4.769318000
C      -1.174777000    -1.219725000     5.181120000
C      -1.346508000    -1.094468000     6.698040000
C      -2.377307000    -2.106709000     7.208327000
P       0.037693000    -0.018543000     4.491809000
Au      0.120391000    -0.056265000     2.245552000
Cl     -0.106383000    -0.261136000    -0.053513000
H      -1.085615000    -3.827930000     7.305575000
H      -2.784125000    -4.228549000     7.137682000
H      -2.776675000    -3.469644000     4.783934000
H      -1.515339000    -4.663329000     5.017946000
H      -0.708084000    -2.716403000     3.684747000
H       0.193038000    -2.889076000     5.184323000
H      -2.116901000    -0.962134000     4.687254000
H      -1.649723000    -0.080135000     6.964667000
H      -0.383946000    -1.278625000     7.186034000
H      -2.460596000    -2.027977000     8.293641000
H      -3.358452000    -1.852359000     6.796846000
H       1.221700000    -0.281061000     5.210700000
H      -0.322704000     1.209663000     5.081332000
I      -2.807451000    -1.415023000     1.299434000
I      -5.030099000    -2.416045000     2.570583000