24
energy: -5384146.076000 kJ/mol; low freq (cm^-1): 11.66, 29.25, 36.6
C      -2.422007000    -3.550213000     4.349492000
C      -2.654529000    -3.235100000     2.871593000
C      -1.508584000    -2.410677000     2.281646000
C      -1.279755000    -1.132561000     3.102717000
C      -1.041131000    -1.442346000     4.584530000
C      -2.190783000    -2.274570000     5.160949000
P       0.087672000    -0.142675000     2.364175000
Au     -0.199061000     0.399760000     0.195498000
Br     -0.744935000     0.834821000    -2.136767000
H      -1.547969000    -4.202466000     4.447717000
H      -3.270833000    -4.103175000     4.755146000
H      -3.587542000    -2.676506000     2.756234000
H      -2.772579000    -4.153926000     2.296019000
H      -1.720572000    -2.158804000     1.243158000
H      -0.591030000    -3.008706000     2.286377000
H      -2.164889000    -0.496465000     3.003395000
H      -0.921927000    -0.517640000     5.152672000
H      -0.104977000    -2.000800000     4.685871000
H      -1.978573000    -2.516376000     6.203821000
H      -3.104159000    -1.671946000     5.157725000
H       1.235539000    -0.901082000     2.673465000
H       0.266640000     0.919172000     3.274002000
Cl     -2.966360000    -0.988606000    -1.205061000
Cl     -4.461146000    -2.251182000    -0.484083000