24
energy: -31162624697134.511719 kJ/mol; low freq (cm^-1) (cm^-1) (cm^-1): 12.96, 27.2, 30.24
C      -2.370409000    -3.675214000     6.552417000
C      -2.204121000    -3.654885000     5.032736000
C      -1.088737000    -2.701629000     4.598547000
C      -1.325148000    -1.293022000     5.164052000
C      -1.482587000    -1.309984000     6.687782000
C      -2.602968000    -2.268049000     7.104543000
P       0.014728000    -0.163889000     4.598915000
Au      0.082797000     0.081757000     2.356491000
Br     -0.189772000     0.193715000    -0.069831000
H      -1.471361000    -4.098743000     7.012407000
H      -3.200162000    -4.327227000     6.830129000
H      -3.140339000    -3.339021000     4.566242000
H      -1.989733000    -4.656909000     4.657964000
H      -1.029534000    -2.661507000     3.510817000
H      -0.125732000    -3.076350000     4.961776000
H      -2.233842000    -0.888101000     4.708447000
H      -1.687391000    -0.304297000     7.059859000
H      -0.541191000    -1.633290000     7.143894000
H      -2.677958000    -2.290660000     8.193078000
H      -3.556530000    -1.885099000     6.729496000
H       1.164099000    -0.663679000     5.244300000
H      -0.178510000     1.012441000     5.350496000
I      -2.954537000    -0.953450000     1.292058000
I      -5.234535000    -1.904238000     2.533923000