24
energy: -5066173.421000 kJ/mol; low freq (cm^-1): 8.54, 28.46, 32.66
C      -2.237165000    -3.600507000     6.774729000
C      -2.321802000    -3.368761000     5.266056000
C      -1.210605000    -2.440947000     4.770834000
C      -1.220704000    -1.117119000     5.550432000
C      -1.128650000    -1.344584000     7.063237000
C      -2.244669000    -2.278021000     7.542683000
P       0.110264000    -0.008293000     4.924023000
Au     -0.001768000     0.416747000     2.697376000
I      -0.439756000     0.666398000     0.145047000
H      -1.316814000    -4.146339000     7.007730000
H      -3.064940000    -4.229884000     7.105619000
H      -3.288200000    -2.925208000     5.012848000
H      -2.268181000    -4.315673000     4.727607000
H      -1.328011000    -2.250670000     3.704359000
H      -0.239767000    -2.929681000     4.906806000
H      -2.150762000    -0.588752000     5.318683000
H      -1.176607000    -0.392528000     7.595619000
H      -0.157647000    -1.792298000     7.298559000
H      -2.136540000    -2.455370000     8.614155000
H      -3.209782000    -1.781831000     7.402009000
H       1.290542000    -0.623041000     5.389871000
H       0.073936000     1.099972000     5.794330000
Cl     -2.634382000    -1.214381000     1.185131000
Cl     -4.122022000    -2.506369000     1.973313000