24
energy: -35546041702568.398438 kJ/mol; low freq (cm^-1) (cm^-1) (cm^-1): 10.9, 27.18, 32.89
C      -2.329519000    -3.699488000     6.574698000
C      -2.196437000    -3.664083000     5.051655000
C      -1.089838000    -2.706185000     4.606337000
C      -1.325620000    -1.302239000     5.184016000
C      -1.445925000    -1.330763000     6.710950000
C      -2.550343000    -2.298651000     7.147941000
P      -0.015382000    -0.153175000     4.589419000
Au      0.006802000     0.046252000     2.343817000
Br     -0.347908000     0.061758000    -0.074091000
H      -1.419913000    -4.127106000     7.009385000
H      -3.152011000    -4.355379000     6.864621000
H      -3.140682000    -3.342595000     4.605414000
H      -1.990701000    -4.662545000     4.662948000
H      -1.039573000    -2.659631000     3.518494000
H      -0.121659000    -3.079109000     4.957715000
H      -2.250621000    -0.906785000     4.753134000
H      -1.647305000    -0.329293000     7.096136000
H      -0.491372000    -1.651761000     7.140488000
H      -2.595082000    -2.333442000     8.237852000
H      -3.515507000    -1.914793000     6.804638000
H       1.154019000    -0.620307000     5.223358000
H      -0.223320000     1.027749000     5.329937000
Br     -2.877857000    -1.108590000     1.201665000
Br     -4.798312000    -2.025748000     2.280009000