24
energy: -5497920.499000 kJ/mol; low freq (cm^-1): 18.18, 29.35, 39.42
C      -2.078239000    -3.431437000     4.671518000
C      -2.164916000    -3.442257000     3.144655000
C      -1.094468000    -2.548810000     2.514296000
C      -1.189341000    -1.121813000     3.072276000
C      -1.080995000    -1.104523000     4.600467000
C      -2.149500000    -2.007448000     5.225606000
P       0.054632000    -0.039357000     2.256793000
Au     -0.077861000     0.172149000     0.010562000
Cl     -0.259102000     0.368148000    -2.261498000
H      -1.134926000    -3.892010000     4.982862000
H      -2.877723000    -4.039238000     5.098340000
H      -3.150326000    -3.087284000     2.829725000
H      -2.061854000    -4.459474000     2.763831000
H      -1.200717000    -2.536820000     1.430120000
H      -0.102401000    -2.955826000     2.736783000
H      -2.152619000    -0.699713000     2.773933000
H      -1.180933000    -0.085165000     4.978277000
H      -0.088144000    -1.458193000     4.896233000
H      -2.034419000    -2.013324000     6.310837000
H      -3.137256000    -1.586041000     5.016139000
H       1.280810000    -0.526062000     2.755123000
H      -0.021542000     1.165638000     2.984196000
Cl     -2.985239000    -0.574737000     0.025866000
Cl     -4.855398000    -1.229788000     0.609792000