24
energy: -34922401307621.156250 kJ/mol; low freq (cm^-1) (cm^-1) (cm^-1): 9.03, 27.98, 32.94
C      -2.089179000    -3.637122000     4.563544000
C      -2.276991000    -3.493368000     3.053388000
C      -1.227850000    -2.566186000     2.435753000
C      -1.228784000    -1.200420000     3.139162000
C      -1.036131000    -1.338874000     4.653528000
C      -2.089483000    -2.273651000     5.255825000
P       0.031645000    -0.095163000     2.374592000
Au     -0.204245000     0.206602000     0.137908000
I      -0.752658000     0.310516000    -2.403137000
H      -1.138918000    -4.142704000     4.764784000
H      -2.873684000    -4.269701000     4.982062000
H      -3.270848000    -3.091065000     2.840425000
H      -2.229276000    -4.467052000     2.564571000
H      -1.419662000    -2.444917000     1.370144000
H      -0.236185000    -3.020331000     2.535630000
H      -2.185761000    -0.709518000     2.936933000
H      -1.079868000    -0.359584000     5.134265000
H      -0.038660000    -1.745240000     4.849749000
H      -1.907628000    -2.385919000     6.326090000
H      -3.076750000    -1.813581000     5.151114000
H       1.253029000    -0.655261000     2.801772000
H       0.014805000     1.057404000     3.185924000
Cl     -2.768964000    -1.662670000    -1.189310000
Cl     -4.122231000    -3.021680000    -0.281820000