24
energy: -33354186971769.136719 kJ/mol; low freq (cm^-1) (cm^-1) (cm^-1): 7.12, 23.77, 30.39
C      -1.709941000    -3.801713000     6.981400000
C      -1.392454000    -3.874108000     5.487760000
C      -0.474126000    -2.732340000     5.047878000
C      -1.076705000    -1.372568000     5.432792000
C      -1.393345000    -1.291752000     6.930638000
C      -2.306406000    -2.444906000     7.358508000
P       0.035411000    -0.010513000     4.884573000
Au      0.529109000     0.008470000     2.669137000
I       0.941771000    -0.239298000     0.107029000
H      -0.791906000    -3.963454000     7.556085000
H      -2.397151000    -4.602405000     7.259517000
H      -2.318761000    -3.824469000     4.909343000
H      -0.927122000    -4.827598000     5.236999000
H      -0.304216000    -2.779846000     3.972730000
H       0.501455000    -2.841855000     5.533804000
H      -1.996917000    -1.227341000     4.858441000
H      -1.856594000    -0.332806000     7.171365000
H      -0.457350000    -1.344007000     7.496073000
H      -2.484234000    -2.388388000     8.433845000
H      -3.279706000    -2.328607000     6.872257000
H       1.135912000    -0.119787000     5.758834000
H      -0.558953000     1.153777000     5.411625000
Br     -0.634445000    -2.793018000     0.940075000
Br     -1.846700000    -4.752705000     1.667718000