24
energy: -28970765627199.644531 kJ/mol; low freq (cm^-1) (cm^-1) (cm^-1): 14.21, 26.0, 28.65
C      -2.146308000    -3.697736000     6.843247000
C      -1.943803000    -3.719840000     5.327944000
C      -0.875218000    -2.718452000     4.884153000
C      -1.203688000    -1.308157000     5.396900000
C      -1.392403000    -1.284159000     6.916717000
C      -2.469226000    -2.287919000     7.340415000
P       0.081146000    -0.124565000     4.816003000
Au      0.156537000     0.055983000     2.552476000
I      -0.173112000     0.063714000    -0.035697000
H      -1.237261000    -4.055184000     7.338510000
H      -2.945969000    -4.385105000     7.123904000
H      -2.884657000    -3.474861000     4.829910000
H      -1.662928000    -4.720133000     4.994657000
H      -0.796408000    -2.711043000     3.796774000
H       0.099860000    -3.025001000     5.278006000
H      -2.124270000    -0.971986000     4.910778000
H      -1.659698000    -0.279619000     7.250228000
H      -0.445294000    -1.540516000     7.402698000
H      -2.570181000    -2.278230000     8.427064000
H      -3.431918000    -1.970643000     6.929452000
H       1.246620000    -0.539899000     5.491817000
H      -0.186078000     1.062868000     5.526417000
I      -2.912040000    -1.103745000     1.605822000
I      -5.116762000    -2.037752000     3.030231000