24
energy: -5270420.267000 kJ/mol; low freq (cm^-1): 9.34, 27.31, 34.94
C      -1.997085000    -3.529689000     6.838734000
C      -2.029114000    -3.546236000     5.310369000
C      -1.010063000    -2.573919000     4.712641000
C      -1.220559000    -1.157130000     5.267295000
C      -1.185302000    -1.133453000     6.799325000
C      -2.204956000    -2.116016000     7.383867000
P       0.000597000     0.000707000     4.518594000
Au     -0.042023000     0.063713000     2.275056000
Cl     -0.281075000    -0.071506000    -0.028090000
H      -1.030739000    -3.910543000     7.185455000
H      -2.758603000    -4.201046000     7.238832000
H      -3.026962000    -3.271500000     4.958189000
H      -1.834880000    -4.550826000     4.932571000
H      -1.088866000    -2.568195000     3.626003000
H       0.002443000    -2.909770000     4.960944000
H      -2.192599000    -0.792919000     4.920335000
H      -1.376946000    -0.124316000     7.169392000
H      -0.181810000    -1.411117000     7.137646000
H      -2.134234000    -2.110220000     8.472922000
H      -3.213780000    -1.775078000     7.132335000
H       1.219820000    -0.380344000     5.115190000
H      -0.215878000     1.215525000     5.199888000
Br     -2.426158000    -1.879953000     0.923361000
Br     -4.103580000    -3.314310000     1.782564000