24
energy: -37898553368448.937500 kJ/mol; low freq (cm^-1) (cm^-1) (cm^-1): 11.61, 27.91, 38.69
C      -1.989971000    -3.529360000     6.875263000
C      -2.143915000    -3.503868000     5.354730000
C      -1.146449000    -2.547899000     4.696256000
C      -1.257406000    -1.140445000     5.301653000
C      -1.102219000    -1.161612000     6.826849000
C      -2.105536000    -2.124677000     7.468384000
P      -0.047198000    -0.004707000     4.500844000
Au     -0.160542000     0.125829000     2.263850000
Cl     -0.405430000     0.097013000    -0.033742000
H      -1.012457000    -3.949695000     7.133420000
H      -2.739365000    -4.186709000     7.319208000
H      -3.158799000    -3.189072000     5.094489000
H      -2.014386000    -4.503176000     4.937517000
H      -1.321234000    -2.517216000     3.621526000
H      -0.128806000    -2.923749000     4.845493000
H      -2.237876000    -0.728173000     5.043636000
H      -1.227340000    -0.157043000     7.235711000
H      -0.085776000    -1.481954000     7.077266000
H      -1.947652000    -2.149741000     8.547982000
H      -3.119186000    -1.744947000     7.307830000
H       1.186995000    -0.435898000     5.029334000
H      -0.191324000     1.198472000     5.221275000
Cl     -2.081495000    -2.205366000     0.754587000
Cl     -3.219534000    -3.802348000     1.410054000