24
energy: -28970766143800.500000 kJ/mol; low freq (cm^-1) (cm^-1) (cm^-1): 15.44, 26.57, 28.7
C      -1.333866000    -3.728630000     4.676726000
C      -0.510887000    -3.846883000     3.393681000
C       0.136109000    -2.514212000     3.010560000
C      -0.921301000    -1.404052000     2.911065000
C      -1.737007000    -1.276809000     4.201354000
C      -2.380270000    -2.618796000     4.565341000
P      -0.115741000     0.175037000     2.414510000
Au      0.885953000     0.049482000     0.379124000
I       1.771200000    -0.498406000    -2.014008000
H      -0.668197000    -3.513526000     5.519364000
H      -1.820688000    -4.679805000     4.898037000
H      -1.156117000    -4.173489000     2.574905000
H       0.264460000    -4.606432000     3.505705000
H       0.662516000    -2.611543000     2.060872000
H       0.878365000    -2.236580000     3.766799000
H      -1.591041000    -1.642488000     2.079459000
H      -2.503809000    -0.507506000     4.091801000
H      -1.078002000    -0.957587000     5.015395000
H      -2.932246000    -2.517236000     5.501392000
H      -3.109105000    -2.884288000     3.794229000
H       0.681578000     0.508604000     3.528369000
H      -1.127384000     1.146205000     2.553787000
I      -0.727563000    -2.595255000    -1.062682000
I      -2.803870000    -4.232454000    -0.182886000