24
energy: -5270420.335000 kJ/mol; low freq (cm^-1): 9.67, 27.19, 34.91
C      -1.986804000    -3.481368000     4.739471000
C      -2.144684000    -3.445591000     3.219196000
C      -1.116689000    -2.519947000     2.565683000
C      -1.190393000    -1.111428000     3.174631000
C      -1.024103000    -1.140753000     4.697841000
C      -2.053530000    -2.076268000     5.339739000
P       0.030531000    -0.004705000     2.352550000
Au     -0.231085000     0.166293000     0.129413000
Cl     -0.715101000     0.171504000    -2.138890000
H      -1.023539000    -3.935867000     4.993589000
H      -2.756994000    -4.114363000     5.183176000
H      -3.148000000    -3.097792000     2.959157000
H      -2.048060000    -4.447470000     2.799048000
H      -1.281405000    -2.473700000     1.489630000
H      -0.111018000    -2.924887000     2.721522000
H      -2.164241000    -0.679174000     2.924403000
H      -1.118621000    -0.134587000     5.111043000
H      -0.015864000    -1.491290000     4.941005000
H      -1.891600000    -2.111837000     6.418434000
H      -3.055047000    -1.663386000     5.185567000
H       1.272360000    -0.493403000     2.807111000
H      -0.031448000     1.190296000     3.097251000
Br     -2.791600000    -1.654238000    -1.093140000
Br     -4.421669000    -3.102505000    -0.167739000