24
energy: -35546045041831.148438 kJ/mol; low freq (cm^-1) (cm^-1) (cm^-1): 2.8, 26.67, 32.34
C      -2.390789000    -3.569137000     4.355208000
C      -2.561725000    -3.324029000     2.856068000
C      -1.416747000    -2.485358000     2.284046000
C      -1.267130000    -1.167897000     3.060216000
C      -1.093509000    -1.407639000     4.564026000
C      -2.244114000    -2.252643000     5.119185000
P       0.110012000    -0.171971000     2.349825000
Au     -0.135443000     0.337582000     0.168198000
Br     -0.682513000     0.747648000    -2.177652000
H      -1.501198000    -4.184744000     4.524609000
H      -3.239809000    -4.134265000     4.743204000
H      -3.504937000    -2.803827000     2.671484000
H      -2.620879000    -4.270042000     2.316328000
H      -1.591851000    -2.280570000     1.228219000
H      -0.481168000    -3.050560000     2.353585000
H      -2.163232000    -0.563875000     2.888490000
H      -1.031990000    -0.456305000     5.096107000
H      -0.146891000    -1.930077000     4.735742000
H      -2.078371000    -2.440979000     6.181299000
H      -3.175009000    -1.683026000     5.041858000
H       1.259145000    -0.908140000     2.703266000
H       0.248733000     0.910586000     3.241550000
Br     -3.089050000    -0.711894000    -1.036635000
Br     -4.943644000    -1.851396000    -0.056629000