8
energy: -24724104020017.957031 kJ/mol; low freq (cm^-1) (cm^-1) (cm^-1): 18.15, 19.63, 33.32
P      -0.021746000    -0.013958000     2.383115000
Au     -0.104497000    -0.009038000     0.114807000
I      -0.318323000     0.000100000    -2.472916000
H      -0.469967000     1.144645000     3.044150000
H      -0.794596000    -0.986047000     3.044694000
H       1.213568000    -0.201194000     3.031476000
I      -3.395002000     0.010226000    -0.945883000
I      -5.864385000     0.016308000     0.310636000