8
energy: -33651938768877.421875 kJ/mol; low freq (cm^-1) (cm^-1) (cm^-1): 30.05, 60.1, 60.96
P       0.231661000    -0.080881000     2.119655000
Au      0.030160000    -0.122332000    -0.123976000
Cl     -0.159863000    -0.166371000    -2.393254000
H       0.777751000     1.081749000     2.691685000
H      -0.922404000    -0.230851000     2.912169000
H       1.059846000    -1.057127000     2.701149000
Cl      3.033240000     0.204696000     0.182036000
Cl      5.040600000     0.416966000     0.588902000