8
energy: -29107547180931.765625 kJ/mol; low freq (cm^-1) (cm^-1) (cm^-1): 11.33, 15.89, 53.4
P       0.253799000    -0.017735000     4.598693000
Au     -0.003985000    -0.003770000     2.345344000
I      -0.176209000     0.011859000    -0.241878000
H       0.991748000     1.035914000     5.169098000
H      -0.892966000     0.017435000     5.413901000
H       0.922319000    -1.118950000     5.164878000
Br      2.930380000     0.016014000     0.466249000
Br      5.258388000     0.018175000     1.024804000