8
energy: -4018458.860000 kJ/mol; low freq (cm^-1): 16.74, 28.24, 29.8
P       0.122638000     0.103074000     2.187308000
Au      0.011203000    -0.036360000    -0.064633000
Cl     -0.043031000    -0.112719000    -2.340932000
H      -0.125658000     1.368748000     2.745967000
H      -0.726546000    -0.696372000     2.977274000
H       1.366347000    -0.193391000     2.771648000
I       2.234327000     2.254627000    -0.141255000
I       4.031585000     4.211745000     0.543057000