8
energy: -4450118.553000 kJ/mol; low freq (cm^-1): 10.77, 15.1, 63.52
P      -0.254752000    -0.060837000     4.674917000
Au     -0.408727000     0.226636000     2.429267000
I      -0.621336000     0.477204000    -0.134990000
H       0.999819000     0.122500000     5.286497000
H      -1.046824000     0.755032000     5.504686000
H      -0.591561000    -1.327331000     5.187993000
Cl     -1.854222000    -2.367331000     0.336371000
Cl     -2.672242000    -4.269729000     0.657762000