8
energy: -32083700433223.386719 kJ/mol; low freq (cm^-1) (cm^-1) (cm^-1): 14.15, 15.54, 56.71
P       0.141087000     0.006713000     4.421631000
Au      0.110609000     0.005551000     2.180260000
Cl      0.115207000     0.004498000    -0.121294000
H      -0.591711000     1.003739000     5.091847000
H      -0.336295000    -1.137329000     5.087570000
H       1.391702000     0.154606000     5.048922000
Br      3.074428000    -0.001394000     0.194190000
Br      5.416927000    -0.006488000     0.471056000