8
energy: -4018461.691000 kJ/mol; low freq (cm^-1): 11.53, 16.74, 39.41
P      -0.001272000     0.190466000     4.378567000
Au     -0.001731000     0.029360000     2.142094000
Cl     -0.003199000    -0.088335000    -0.161016000
H       0.041108000     1.486485000     4.923987000
H      -1.099989000    -0.338993000     5.080476000
H       1.054998000    -0.412118000     5.086643000
I       0.002528000     3.062997000     0.253081000
I       0.006397000     5.773081000     0.679050000