8
energy: -4222615.762000 kJ/mol; low freq (cm^-1): 10.64, 14.1, 54.83
P       0.050086000     0.060465000     2.465507000
Au     -0.113913000    -0.138011000     0.211649000
I      -0.355457000    -0.445913000    -2.350601000
H      -0.363927000     1.267751000     3.058841000
H      -0.679271000    -0.858248000     3.242346000
H       1.321556000    -0.074261000     3.053789000
Br     -2.242346000    -2.660544000    -1.076623000
Br     -3.655772000    -4.326352000    -0.094831000