8
energy: -4881869.786000 kJ/mol; low freq (cm^-1): 4.69, 18.24, 67.63
P       0.126984000     0.051512000     4.427097000
Au      0.141537000     0.244634000     2.193843000
Cl      0.191043000     0.436017000    -0.093249000
H      -1.117454000    -0.000274000     5.082641000
H       0.744133000    -1.082178000     4.987987000
H       0.753586000     1.064593000     5.176691000
Cl      3.098239000    -0.144358000     0.182433000
Cl      5.102744000    -0.548452000     0.413570000