8
energy: -32867633887072.675781 kJ/mol; low freq (cm^-1) (cm^-1) (cm^-1): 23.14, 55.37, 59.94
P      -0.096674000    -0.274115000     2.121858000
Au      0.087470000    -0.155720000    -0.132136000
Br      0.303056000     0.001365000    -2.518211000
H      -1.297468000     0.184714000     2.691682000
H      -0.008827000    -1.545924000     2.715327000
H       0.838727000     0.432083000     2.902460000
Cl     -2.338656000    -1.955971000     0.192732000
Cl     -3.968720000    -3.141113000     0.628943000