8
energy: -30675780893165.675781 kJ/mol; low freq (cm^-1) (cm^-1) (cm^-1): 7.16, 14.94, 63.52
P       0.098040000     0.085779000     2.504374000
Au     -0.128824000    -0.148911000     0.258551000
I      -0.450733000    -0.477788000    -2.286412000
H      -0.075368000     1.366818000     3.061398000
H      -0.776422000    -0.654654000     3.321396000
H       1.330253000    -0.264407000     3.087815000
Cl     -2.532163000    -2.503468000    -1.114522000
Cl     -3.920694000    -3.856762000    -0.320249000