8
energy: -24724103285735.160156 kJ/mol; low freq (cm^-1) (cm^-1) (cm^-1): 5.54, 19.21, 37.45
P       0.322748000     0.052460000     4.544066000
Au     -0.073233000     0.159913000     2.311850000
I      -0.414996000     0.281520000    -0.258881000
H      -0.578149000     0.670368000     5.431745000
H       0.407734000    -1.222151000     5.134470000
H       1.532747000     0.611116000     4.995193000
I       2.897312000    -0.142425000     0.539705000
I       5.558585000    -0.449759000     1.245380000