8
energy: -4540584.170000 kJ/mol; low freq (cm^-1): 26.22, 35.69, 43.11
P      -0.165973000    -0.351182000     2.180153000
Au      0.012501000    -0.210966000    -0.079038000
Br      0.193025000    -0.077782000    -2.467267000
H      -1.423452000    -0.055895000     2.734698000
H       0.078164000    -1.609196000     2.758148000
H       0.662439000     0.461142000     2.978684000
Br     -2.175177000    -2.265146000    -0.020901000
Br     -3.907167000    -3.839895000     0.322494000