8
energy: -4540588.413000 kJ/mol; low freq (cm^-1): 9.29, 16.21, 55.19
P      -0.141643000    -0.160547000     4.495001000
Au     -0.040396000    -0.060833000     2.247621000
Br      0.032378000     0.002319000    -0.176902000
H      -0.643818000     0.958482000     5.185032000
H      -0.937204000    -1.175008000     5.058483000
H       1.057048000    -0.365231000     5.203380000
Br     -1.936485000    -2.303338000     0.315629000
Br     -3.455054000    -4.082817000     0.709867000