8
energy: -32867655030277.320312 kJ/mol; low freq (cm^-1) (cm^-1) (cm^-1): 17.12, 17.8, 65.8
P      -0.135607000    -0.122803000     4.519307000
Au     -0.079758000    -0.051811000     2.268970000
Br     -0.054722000    -0.011501000    -0.150059000
H      -0.779209000     0.928809000     5.198373000
H      -0.774102000    -1.225109000     5.117561000
H       1.088571000    -0.144312000     5.213772000
Cl     -2.163500000    -2.176954000     0.282888000
Cl     -3.589685000    -3.647002000     0.587366000