8
energy: -26915971151415.976562 kJ/mol; low freq (cm^-1) (cm^-1) (cm^-1): 10.44, 16.75, 38.04
P      -0.185628000    -0.175167000     4.464515000
Au     -0.018570000     0.011992000     2.225954000
Br      0.126266000     0.177926000    -0.193215000
H      -0.846274000     0.850952000     5.165403000
H      -0.873605000    -1.296795000     4.962445000
H       1.000587000    -0.258542000     5.217368000
I      -2.128122000    -2.138838000     0.353002000
I      -4.011971000    -4.088546000     0.842235000