8
energy: -26915971641719.082031 kJ/mol; low freq (cm^-1) (cm^-1) (cm^-1): 17.39, 20.49, 35.85
P       0.039238000    -0.063486000     2.405164000
Au     -0.153125000    -0.111126000     0.161085000
Br     -0.428939000    -0.161120000    -2.251976000
H      -0.622063000     0.976696000     3.083567000
H      -0.451067000    -1.172941000     3.118323000
H       1.321106000     0.046784000     2.975582000
I      -3.458820000     0.105058000    -0.976787000
I      -5.988922000     0.329894000     0.087849000