8
energy: -32083682028114.242188 kJ/mol; low freq (cm^-1) (cm^-1) (cm^-1): 32.65, 41.01, 43.94
P      -0.079599000     0.195783000     2.166397000
Au     -0.118510000     0.067439000    -0.088639000
Cl     -0.157363000    -0.056885000    -2.361026000
H      -1.104730000     0.938053000     2.777899000
H      -0.152908000    -1.000798000     2.905380000
H       1.051962000     0.790285000     2.750706000
Br      0.158838000     3.046853000     0.097570000
Br      0.411517000     5.372555000     0.430145000