17
energy: -5077721.564000 kJ/mol; low freq (cm^-1): 21.51, 36.63, 47.06
C      -2.431947000    -0.814545000     5.105679000
C      -0.991801000    -1.281512000     5.324741000
C      -0.701861000    -2.600849000     4.606870000
P       0.182156000     0.018869000     4.725631000
Au      0.051044000     0.434435000     2.513980000
Br     -0.298893000     0.680310000     0.118256000
H      -2.643643000     0.119951000     5.626248000
H      -3.121724000    -1.571851000     5.479240000
H      -2.637107000    -0.673026000     4.044656000
H      -0.798710000    -1.393117000     6.393975000
H      -0.875999000    -2.505084000     3.535192000
H      -1.368525000    -3.376505000     4.984707000
H       0.324848000    -2.934397000     4.761015000
H       1.433914000    -0.406669000     5.213522000
H      -0.049339000     1.105877000     5.592138000
Cl     -2.352255000    -1.375422000     1.020377000
Cl     -3.726178000    -2.776553000     1.713668000