17
energy: -34218064259552.511719 kJ/mol; low freq (cm^-1) (cm^-1) (cm^-1): 23.07, 28.65, 49.54
C      -1.713691000    -2.153020000     4.252084000
C      -0.590318000    -1.587527000     5.123145000
C       0.703290000    -2.392623000     4.986064000
P      -0.274526000     0.175834000     4.659200000
Au      0.399634000     0.457078000     2.536038000
Cl      1.075477000     0.481824000     0.317627000
H      -2.638511000    -1.584670000     4.356095000
H      -1.916688000    -3.184069000     4.542470000
H      -1.426033000    -2.155325000     3.200765000
H      -0.906456000    -1.571657000     6.168582000
H       1.041710000    -2.409030000     3.950158000
H       0.524629000    -3.423543000     5.292617000
H       1.504759000    -1.989681000     5.606050000
H       0.595676000     0.641164000     5.665081000
H      -1.454266000     0.845812000     5.039769000
Br      0.634152000    -2.406099000     0.792318000
Br      0.222447000    -4.681054000     1.300801000