17
energy: -3896345.985000 kJ/mol; low freq (cm^-1): 21.49, 27.39, 41.19
C      -2.183002000    -0.411136000     3.090527000
C      -0.907992000    -1.255773000     3.074743000
C      -1.051915000    -2.511385000     2.213509000
P       0.505408000    -0.234678000     2.453500000
Au      0.292224000     0.552759000     0.332873000
I      -0.157800000     1.352483000    -2.112044000
H      -2.080328000     0.471297000     3.723113000
H      -3.010906000    -1.007823000     3.473508000
H      -2.448365000    -0.087386000     2.084612000
H      -0.642216000    -1.538625000     4.095827000
H      -1.279673000    -2.251463000     1.180209000
H      -1.875391000    -3.118872000     2.589119000
H      -0.147591000    -3.120816000     2.226643000
H       1.637844000    -1.035548000     2.701867000
H       0.684514000     0.741121000     3.454197000
I      -2.746003000    -0.507938000    -1.084943000
I      -4.791256000    -2.076959000    -0.030786000