17
energy: -33433783863585.960938 kJ/mol; low freq (cm^-1) (cm^-1) (cm^-1): 23.65, 31.89, 48.02
C      -2.415167000    -0.854348000     5.082758000
C      -0.980947000    -1.329462000     5.322579000
C      -0.672405000    -2.629181000     4.577263000
P       0.203691000    -0.011599000     4.789746000
Au      0.052700000     0.535618000     2.607281000
Br     -0.341494000     0.926384000     0.226942000
H      -2.635768000     0.068921000     5.619555000
H      -3.114065000    -1.618500000     5.423219000
H      -2.597222000    -0.688915000     4.021107000
H      -0.812510000    -1.469150000     6.392753000
H      -0.805421000    -2.503350000     3.502950000
H      -1.359706000    -3.409060000     4.905560000
H       0.344919000    -2.975369000     4.762620000
H       1.456073000    -0.473377000     5.241267000
H      -0.009049000     1.032500000     5.711697000
Br     -2.252962000    -1.300562000     0.962156000
Br     -3.715457000    -3.045947000     1.675300000