17
energy: -29050352620302.222656 kJ/mol; low freq (cm^-1) (cm^-1) (cm^-1): 20.82, 26.3, 44.74
C      -2.129323000    -0.361427000     3.175826000
C      -0.852222000    -1.201767000     3.129914000
C      -1.018144000    -2.462905000     2.280346000
P       0.541059000    -0.181620000     2.464573000
Au      0.260435000     0.584139000     0.360085000
Br     -0.231598000     1.317199000    -1.922511000
H      -2.012075000     0.527306000     3.796777000
H      -2.943317000    -0.957601000     3.588441000
H      -2.424685000    -0.046618000     2.175210000
H      -0.557607000    -1.478543000     4.144789000
H      -1.280609000    -2.208575000     1.253821000
H      -1.825462000    -3.072804000     2.686104000
H      -0.111124000    -3.068110000     2.265875000
H       1.680555000    -0.980298000     2.685553000
H       0.745539000     0.798740000     3.455794000
I      -2.764224000    -0.454005000    -1.011834000
I      -4.821461000    -2.002174000    -0.005126000