17
energy: -3896345.923000 kJ/mol; low freq (cm^-1): 18.47, 27.63, 41.87
C      -1.698908000    -2.198689000     4.573038000
C      -0.549605000    -1.612201000     5.393990000
C       0.765805000    -2.359826000     5.171822000
P      -0.325230000     0.173701000     4.961806000
Au      0.305541000     0.586128000     2.817934000
I       1.039683000     0.811065000     0.321808000
H      -2.640002000    -1.680948000     4.761111000
H      -1.832057000    -3.249340000     4.830681000
H      -1.482659000    -2.148240000     3.506324000
H      -0.808941000    -1.630051000     6.454931000
H       1.060687000    -2.324315000     4.123434000
H       0.640752000    -3.407854000     5.443826000
H       1.576568000    -1.947589000     5.773636000
H       0.545944000     0.657708000     5.957956000
H      -1.524853000     0.779559000     5.385283000
I       0.475482000    -2.418540000     0.962829000
I      -0.094325000    -5.033993000     1.736299000