17
energy: -4759749.063000 kJ/mol; low freq (cm^-1): 24.33, 38.69, 45.48
C      -1.781628000    -2.057891000     2.215215000
C      -0.677505000    -1.451926000     3.083437000
C       0.598924000    -2.294842000     3.062229000
P      -0.296054000     0.259675000     2.490818000
Au      0.483562000     0.326259000     0.359519000
I       1.337243000    -0.010174000    -2.074612000
H      -2.692688000    -1.458776000     2.234857000
H      -2.025549000    -3.056042000     2.579810000
H      -1.453114000    -2.155861000     1.180882000
H      -1.032674000    -1.344473000     4.110620000
H       0.979420000    -2.397344000     2.046096000
H       0.381845000    -3.295892000     3.435297000
H       1.384047000    -1.864655000     3.684936000
H       0.542605000     0.789685000     3.491693000
H      -1.472322000     0.986368000     2.763925000
Cl      0.615957000    -2.807744000    -1.008693000
Cl      0.081141000    -4.689116000    -0.189554000