17
energy: -29834636753010.121094 kJ/mol; low freq (cm^-1) (cm^-1) (cm^-1): 18.88, 27.77, 47.16
C      -1.721109000    -2.158061000     4.293932000
C      -0.592035000    -1.562972000     5.136518000
C       0.714620000    -2.344548000     4.990397000
P      -0.316639000     0.203291000     4.656115000
Au      0.394656000     0.528106000     2.549173000
Cl      1.133571000     0.662960000     0.348779000
H      -2.659301000    -1.619422000     4.430477000
H      -1.882244000    -3.197060000     4.581857000
H      -1.466204000    -2.145653000     3.234553000
H      -0.890941000    -1.540086000     6.187005000
H       1.047299000    -2.354728000     3.952714000
H       0.557922000    -3.378430000     5.298674000
H       1.512686000    -1.925910000     5.604477000
H       0.524414000     0.699256000     5.672113000
H      -1.520723000     0.841159000     5.014869000
I       0.560163000    -2.398786000     0.722599000
I      -0.051644000    -5.002815000     1.359771000