17
energy: -35786293144608.703125 kJ/mol; low freq (cm^-1) (cm^-1) (cm^-1): 22.7, 35.58, 52.36
C      -2.467469000    -0.895307000     4.955761000
C      -1.024484000    -1.362270000     5.154695000
C      -0.725817000    -2.647098000     4.379706000
P       0.141368000    -0.031370000     4.610326000
Au      0.007781000     0.465491000     2.424922000
Cl     -0.314681000     0.795324000     0.160787000
H      -2.686064000     0.011414000     5.520604000
H      -3.152987000    -1.674172000     5.291016000
H      -2.671452000    -0.703195000     3.902451000
H      -0.831107000    -1.519582000     6.218127000
H      -0.896839000    -2.503807000     3.312748000
H      -1.388798000    -3.442870000     4.720416000
H       0.302424000    -2.981402000     4.521308000
H       1.394182000    -0.469023000     5.084810000
H      -0.098586000     1.017956000     5.519986000
Cl     -2.388050000    -1.242875000     0.826887000
Cl     -3.773013000    -2.649259000     1.429472000