17
energy: -32810141414594.906250 kJ/mol; low freq (cm^-1) (cm^-1) (cm^-1): 23.35, 38.22, 46.18
C      -2.477807000    -0.896736000     5.153742000
C      -1.053158000    -1.398200000     5.396635000
C      -0.741247000    -2.660464000     4.590371000
P       0.155155000    -0.070146000     4.948440000
Au      0.102212000     0.492289000     2.749205000
I      -0.258119000     0.841330000     0.196187000
H      -2.703455000    -0.006236000     5.741356000
H      -3.189903000    -1.674019000     5.431486000
H      -2.635759000    -0.666827000     4.100280000
H      -0.906934000    -1.593989000     6.461185000
H      -0.864650000    -2.479010000     3.522946000
H      -1.432509000    -3.454459000     4.873290000
H       0.274108000    -3.017486000     4.766085000
H       1.384735000    -0.539269000     5.452551000
H      -0.102701000     0.956943000     5.878243000
Cl     -2.316641000    -1.266476000     1.104606000
Cl     -3.697529000    -2.709011000     1.810098000