17
energy: -5191491.873000 kJ/mol; low freq (cm^-1): 23.77, 31.97, 49.36
C      -2.305658000    -1.446581000     2.690398000
C      -0.815455000    -1.527606000     3.025424000
C      -0.211860000    -2.879817000     2.644698000
P       0.084278000    -0.158155000     2.165673000
Au      0.037089000    -0.143604000    -0.093418000
Cl     -0.045655000    -0.136084000    -2.377430000
H      -2.740430000    -0.489357000     2.979612000
H      -2.843960000    -2.233521000     3.219668000
H      -2.470397000    -1.586655000     1.621373000
H      -0.670853000    -1.350091000     4.093555000
H      -0.326534000    -3.071385000     1.578034000
H      -0.725814000    -3.672588000     3.189383000
H       0.849939000    -2.938643000     2.881207000
H       1.372575000    -0.190099000     2.731834000
H      -0.426797000     0.999234000     2.787147000
Cl      2.309059000    -2.015364000     0.105667000
Cl      3.817170000    -3.395589000     0.438562000