17
energy: -4532249.226000 kJ/mol; low freq (cm^-1): 23.01, 31.15, 45.42
C      -1.715948000    -2.131627000     2.225457000
C      -0.633975000    -1.477278000     3.086615000
C       0.675061000    -2.268252000     3.068973000
P      -0.324731000     0.245667000     2.485935000
Au      0.393150000     0.358372000     0.334987000
I       1.189482000     0.108920000    -2.135463000
H      -2.649834000    -1.568617000     2.243635000
H      -1.919024000    -3.135932000     2.597358000
H      -1.386346000    -2.223832000     1.190782000
H      -0.990631000    -1.376778000     4.114174000
H       1.064919000    -2.354762000     2.055052000
H       0.495102000    -3.277961000     3.438084000
H       1.438749000    -1.808828000     3.697464000
H       0.521604000     0.805068000     3.463840000
H      -1.517183000     0.934282000     2.784855000
Br      0.780632000    -2.780628000    -1.020350000
Br      0.448806000    -4.969817000    -0.057497000