17
energy: -4532249.255000 kJ/mol; low freq (cm^-1): 24.15, 32.07, 46.3
C      -1.682794000    -2.178069000     4.529105000
C      -0.536149000    -1.627634000     5.378880000
C       0.764734000    -2.404090000     5.167286000
P      -0.264404000     0.156442000     4.969201000
Au      0.333864000     0.530407000     2.810890000
I       0.994257000     0.586468000     0.288336000
H      -2.611993000    -1.631115000     4.692582000
H      -1.855725000    -3.223524000     4.784416000
H      -1.436556000    -2.135671000     3.468454000
H      -0.813898000    -1.653508000     6.434984000
H       1.073888000    -2.368734000     4.122922000
H       0.610458000    -3.450880000     5.429036000
H       1.576827000    -2.016908000     5.783684000
H       0.634561000     0.604082000     5.957595000
H      -1.439471000     0.794792000     5.413299000
Br      0.500472000    -2.406483000     1.036173000
Br      0.091519000    -4.679566000     1.744513000