17
energy: -34218001882427.597656 kJ/mol; low freq (cm^-1) (cm^-1) (cm^-1): 18.38, 28.96, 37.63
C      -2.318234000    -1.416046000     2.728928000
C      -0.823461000    -1.529308000     3.032909000
C      -0.254946000    -2.891602000     2.634546000
P       0.086501000    -0.174755000     2.161616000
Au      0.030781000    -0.180879000    -0.101974000
Cl     -0.052406000    -0.195085000    -2.384453000
H      -2.727741000    -0.452412000     3.033420000
H      -2.861059000    -2.195645000     3.264320000
H      -2.508486000    -1.546080000     1.662814000
H      -0.653753000    -1.359032000     4.098528000
H      -0.398053000    -3.076822000     1.570136000
H      -0.771593000    -3.676202000     3.188434000
H       0.810752000    -2.971920000     2.845294000
H       1.379448000    -0.216302000     2.714702000
H      -0.409785000     0.992630000     2.776530000
Br      2.379660000    -2.016778000     0.001744000
Br      4.162325000    -3.512922000     0.453894000