17
energy: -4214317.851000 kJ/mol; low freq (cm^-1): 20.27, 29.24, 44.64
C      -1.720756000    -2.058203000     4.466513000
C      -0.555719000    -1.525376000     5.302843000
C       0.704970000    -2.376955000     5.147652000
P      -0.197026000     0.226148000     4.821780000
Au      0.216149000     0.571487000     2.630287000
Br      0.594395000     0.753476000     0.220755000
H      -2.616163000    -1.444505000     4.571293000
H      -1.966104000    -3.070965000     4.786916000
H      -1.452888000    -2.098582000     3.410999000
H      -0.845541000    -1.488257000     6.355382000
H       1.048898000    -2.383934000     4.113793000
H       0.484566000    -3.407479000     5.426607000
H       1.517697000    -2.021027000     5.781344000
H       0.807269000     0.626195000     5.725514000
H      -1.286932000     0.947989000     5.347250000
I       0.607845000    -2.414468000     0.904729000
I       0.571404000    -5.047287000     1.746238000