17
energy: -35001945382782.425781 kJ/mol; low freq (cm^-1) (cm^-1) (cm^-1): 18.02, 28.49, 40.07
C      -2.267158000    -1.345484000     2.815772000
C      -0.771002000    -1.493867000     3.097211000
C      -0.236902000    -2.862208000     2.670243000
P       0.152432000    -0.159863000     2.208226000
Au      0.008860000    -0.245697000    -0.056312000
Br     -0.226739000    -0.441561000    -2.445150000
H      -2.651653000    -0.378194000     3.140617000
H      -2.820073000    -2.122113000     3.345085000
H      -2.473595000    -1.453170000     1.750068000
H      -0.580655000    -1.339917000     4.161537000
H      -0.390727000    -3.021929000     1.602884000
H      -0.767768000    -3.646716000     3.210547000
H       0.828061000    -2.970198000     2.873310000
H       1.454981000    -0.232014000     2.737060000
H      -0.299129000     1.022659000     2.828903000
Cl      2.414128000    -1.944279000     0.109931000
Cl      4.081210000    -3.119397000     0.473704000