17
energy: -4328083.122000 kJ/mol; low freq (cm^-1): 12.28, 23.67, 29.81
C      -2.345602000    -1.300463000     2.594865000
C      -0.882112000    -1.392817000     3.028734000
C      -0.244928000    -2.726145000     2.633895000
P       0.084439000    -0.005230000     2.281150000
Au      0.137167000     0.058867000     0.019880000
Cl      0.146781000     0.069930000    -2.265960000
H      -2.799528000    -0.350705000     2.875659000
H      -2.915933000    -2.102524000     3.064744000
H      -2.438432000    -1.407482000     1.513949000
H      -0.810844000    -1.259087000     4.110469000
H      -0.273508000    -2.864562000     1.552295000
H      -0.797021000    -3.547118000     3.092398000
H       0.793548000    -2.797145000     2.958870000
H       1.334023000    -0.091399000     2.927628000
H      -0.434336000     1.149714000     2.894830000
I      -2.398234000     1.962764000    -0.029415000
I      -4.534303000     3.633014000     0.427399000