17
energy: -33433699200686.394531 kJ/mol; low freq (cm^-1) (cm^-1) (cm^-1): 15.7, 26.55, 30.36
C      -2.267805000    -1.355415000     2.808182000
C      -0.772830000    -1.484618000     3.105821000
C      -0.219267000    -2.848893000     2.691955000
P       0.141083000    -0.139022000     2.224249000
Au      0.012694000    -0.218967000    -0.046125000
Br     -0.209007000    -0.398538000    -2.436295000
H      -2.668269000    -0.391922000     3.124910000
H      -2.816177000    -2.137007000     3.334788000
H      -2.461476000    -1.470637000     1.740849000
H      -0.595451000    -1.323188000     4.171321000
H      -0.364607000    -3.019410000     1.625320000
H      -0.744216000    -3.634784000     3.235980000
H       0.845701000    -2.943032000     2.900876000
H       1.442906000    -0.192805000     2.755522000
H      -0.331531000     1.037329000     2.840983000
Br      2.409260000    -1.979850000     0.013215000
Br      4.236516000    -3.436444000     0.432085000