24
energy: -5694883.990000 kJ/mol; low freq (cm^-1): 12.97, 38.54, 39.92
C      -1.681842000     0.108426000     5.045824000
P       0.064011000    -0.138359000     4.551162000
C       0.602142000    -1.570903000     5.556963000
C       0.959348000     1.292015000     5.240089000
C       1.718488000     2.105482000     4.399117000
C       2.403144000     3.199743000     4.915172000
C       2.333835000     3.486662000     6.272086000
C       1.577735000     2.679063000     7.117367000
C       0.893126000     1.586820000     6.604842000
Au      0.380835000    -0.382392000     2.332171000
Cl      0.792514000    -0.511055000     0.054238000
H      -2.068027000     0.995778000     4.549108000
H      -1.767256000     0.231217000     6.124771000
H      -2.266327000    -0.754091000     4.729895000
H       0.045307000    -2.452610000     5.244025000
H       0.431291000    -1.390254000     6.617388000
H       1.662006000    -1.745699000     5.385634000
H       1.775799000     1.885811000     3.342560000
H       2.986166000     3.820291000     4.249715000
H       2.866822000     4.337419000     6.673950000
H       1.522372000     2.900893000     8.174248000
H       0.309278000     0.968183000     7.273728000
Cl      2.297060000     1.909200000     0.557505000
Cl      3.343930000     3.641119000     1.019379000