24
energy: -5263135.138000 kJ/mol; low freq (cm^-1): 11.35, 32.04, 38.24
C      -1.670424000    -0.263601000     5.854759000
P      -0.154576000    -0.016743000     4.857643000
C       0.946735000    -1.378897000     5.392076000
C       0.612069000     1.502278000     5.506057000
C       0.956875000     2.533042000     4.631954000
C       1.547739000     3.693831000     5.118544000
C       1.794750000     3.830400000     6.477991000
C       1.453403000     2.804989000     7.356074000
C       0.865326000     1.645244000     6.873679000
Au     -0.514625000     0.081243000     2.608720000
I      -0.824494000     0.425067000     0.041049000
H      -2.361675000     0.552522000     5.656614000
H      -1.437618000    -0.291079000     6.918449000
H      -2.139154000    -1.201474000     5.561377000
H       0.506011000    -2.330425000     5.099097000
H       1.090794000    -1.360557000     6.471729000
H       1.909310000    -1.269626000     4.897307000
H       0.767132000     2.434916000     3.572324000
H       1.809099000     4.480910000     4.426127000
H       2.253051000     4.733772000     6.856518000
H       1.645590000     2.909850000     8.415031000
H       0.606240000     0.856274000     7.567539000
Cl      0.636743000     2.944670000     0.783917000
Cl      1.684619000     4.712693000     1.376794000