14
energy: -4747052.799000 kJ/mol; low freq (cm^-1): 4.32, 12.01, 44.9
C      -1.180536000     1.477945000     5.078863000
P      -0.027524000     0.165957000     4.535271000
C       1.559413000     0.532484000     5.369849000
Au      0.045066000    -0.050915000     2.291625000
Br      0.005330000    -0.036847000    -0.152015000
H      -2.181231000     1.244012000     4.721451000
H      -0.873857000     2.420537000     4.628814000
H      -1.187332000     1.570280000     6.163914000
H      -0.485593000    -0.964071000     5.241834000
H       1.416407000     0.647374000     6.443324000
H       1.967736000     1.452593000     4.955771000
H       2.263011000    -0.274910000     5.177588000
Br     -1.443908000     2.503097000     0.711238000
Br     -2.575446000     4.470276000     1.444340000