24
energy: -5581101.469000 kJ/mol; low freq (cm^-1): 16.98, 28.55, 36.9
C      -1.586077000    -0.090906000     2.945235000
P       0.094660000     0.016621000     2.225202000
C       0.966254000    -1.432257000     2.922530000
C       0.856931000     1.467370000     3.020697000
C       1.377161000     2.498538000     2.240180000
C       1.957615000     3.607361000     2.844076000
C       2.022220000     3.692928000     4.228748000
C       1.504951000     2.667120000     5.013949000
C       0.925091000     1.559120000     4.413361000
Au      0.081746000     0.091048000    -0.054155000
Br     -0.027535000     0.182199000    -2.465569000
H      -2.160962000     0.780569000     2.639704000
H      -1.542427000    -0.132803000     4.032760000
H      -2.076814000    -0.986308000     2.567113000
H       0.497978000    -2.340977000     2.547876000
H       0.924053000    -1.422601000     4.010747000
H       2.002620000    -1.408513000     2.595290000
H       1.334119000     2.429808000     1.162663000
H       2.361293000     4.400288000     2.230267000
H       2.475801000     4.555298000     4.697544000
H       1.554571000     2.730459000     6.092170000
H       0.528088000     0.768501000     5.036304000
Cl      2.951367000    -0.086000000     0.138356000
Cl      5.004633000    -0.194046000     0.497884000