14
energy: -29123463653186.300781 kJ/mol; low freq (cm^-1) (cm^-1) (cm^-1): 19.64, 25.72, 34.17
C      -1.082947000     1.082110000     3.057301000
P       0.141272000     0.037428000     2.185833000
C       1.756090000     0.448422000     2.936468000
Au      0.087297000     0.090571000    -0.078888000
Cl      0.051810000     0.125610000    -2.366195000
H      -2.085464000     0.803730000     2.738559000
H      -0.912886000     2.124209000     2.792421000
H      -0.996016000     0.962556000     4.136357000
H      -0.122328000    -1.244832000     2.702786000
H       1.713592000     0.351352000     4.020177000
H       2.020318000     1.470404000     2.670688000
H       2.509932000    -0.224728000     2.534060000
I       2.115343000    -2.306164000    -0.048891000
I       3.864116000    -4.327296000     0.624340000