14
energy: -30530766329583.109375 kJ/mol; low freq (cm^-1) (cm^-1) (cm^-1): 11.94, 26.39, 43.55
C      -1.425211000     1.167927000     5.194508000
P      -0.041667000     0.069246000     4.721846000
C       1.471584000     0.887641000     5.345749000
Au     -0.069784000    -0.403260000     2.501312000
I      -0.337927000    -0.521930000    -0.095679000
H      -2.366840000     0.667534000     4.978091000
H      -1.378811000     2.071200000     4.587976000
H      -1.378809000     1.426218000     6.251406000
H      -0.184120000    -1.020425000     5.604179000
H       1.377067000     1.123948000     6.404614000
H       1.629067000     1.804433000     4.780581000
H       2.327031000     0.233623000     5.190138000
Br     -1.738264000     2.061011000     1.076044000
Br     -2.754911000     3.984679000     2.120127000