14
energy: -28339193771501.253906 kJ/mol; low freq (cm^-1) (cm^-1) (cm^-1): 15.93, 27.14, 27.84
C      -1.091209000     1.416358000     2.955789000
P       0.020123000     0.138634000     2.267709000
C       1.661415000     0.487575000     2.992434000
Au      0.016596000     0.013675000    -0.003486000
Br      0.070806000     0.019558000    -2.419102000
H      -2.116446000     1.202323000     2.661120000
H      -0.802112000     2.378259000     2.535695000
H      -1.018883000     1.451195000     4.041691000
H      -0.382413000    -1.028316000     2.948546000
H       1.602050000     0.558200000     4.077319000
H       2.020027000     1.428981000     2.579549000
H       2.356069000    -0.301271000     2.711398000
I       1.047813000     2.976495000    -0.278982000
I       1.894405000     5.467242000     0.555836000