24
energy: -4399730.748000 kJ/mol; low freq (cm^-1): 5.67, 21.97, 31.8
C      -1.727892000     0.197311000     2.825954000
P       0.016295000    -0.195600000     2.430414000
C       0.387539000    -1.648333000     3.481889000
C       0.991111000     1.168793000     3.138200000
C       1.890920000     1.870271000     2.337193000
C       2.642305000     2.910152000     2.873129000
C       2.496799000     3.253408000     4.210627000
C       1.599834000     2.557077000     5.016664000
C       0.849754000     1.518751000     4.484632000
Au      0.389365000    -0.560465000     0.209782000
I       0.871170000    -0.927369000    -2.335126000
H      -2.016377000     1.101943000     2.295257000
H      -1.859649000     0.348349000     3.896573000
H      -2.361540000    -0.623332000     2.493809000
H      -0.225983000    -2.488173000     3.160068000
H       0.186315000    -1.429867000     4.529904000
H       1.436112000    -1.912143000     3.362851000
H       2.008939000     1.608135000     1.295401000
H       3.336104000     3.441656000     2.237288000
H       3.080533000     4.062285000     4.628184000
H       1.485839000     2.823392000     6.058488000
H       0.157320000     0.985999000     5.123151000
I       2.952679000     1.509188000    -1.575133000
I       4.666291000     3.570893000    -0.779939000