24
energy: -36280034602035.898438 kJ/mol; low freq (cm^-1) (cm^-1) (cm^-1): 16.24, 25.75, 29.79
C      -1.568145000    -0.052805000     2.988015000
P       0.096854000     0.063140000     2.232741000
C       0.990426000    -1.384322000     2.905797000
C       0.867832000     1.514972000     3.017930000
C       1.321615000     2.572975000     2.231687000
C       1.908034000     3.683721000     2.825976000
C       2.045495000     3.744357000     4.206644000
C       1.594527000     2.691920000     4.997467000
C       1.008129000     1.582150000     4.406449000
Au      0.072269000     0.127811000    -0.062117000
I      -0.000375000     0.187383000    -2.642156000
H      -2.153456000     0.816136000     2.695137000
H      -1.500440000    -0.093283000     4.074515000
H      -2.063279000    -0.950414000     2.620889000
H       0.520537000    -2.292889000     2.532786000
H       0.970390000    -1.385471000     3.994635000
H       2.019976000    -1.351047000     2.557887000
H       1.224496000     2.521547000     1.156574000
H       2.260840000     4.497151000     2.207645000
H       2.504910000     4.607717000     4.667883000
H       1.701593000     2.735512000     6.072502000
H       0.663669000     0.770406000     5.033448000
Cl      2.957595000     0.060500000     0.103354000
Cl      4.993420000     0.042170000     0.573571000