14
energy: -4656581.189000 kJ/mol; low freq (cm^-1): 6.91, 13.46, 45.06
C      -0.693922000     1.805118000     5.151091000
P       0.023286000     0.186979000     4.685732000
C       1.543002000     0.016898000     5.692635000
Au      0.267294000    -0.046472000     2.441175000
I       0.507220000     0.036543000    -0.150221000
H      -1.670394000     1.909782000     4.682615000
H      -0.050953000     2.595702000     4.768219000
H      -0.789758000     1.896739000     6.231980000
H      -0.850463000    -0.728972000     5.305762000
H       1.330698000     0.175962000     6.748867000
H       2.271500000     0.750614000     5.352408000
H       1.960705000    -0.977380000     5.547868000
Cl     -0.334609000     2.863231000     0.850578000
Cl     -0.917879000     4.743001000     1.621919000