24
energy: -33304604739860.941406 kJ/mol; low freq (cm^-1) (cm^-1) (cm^-1): 10.08, 25.11, 31.89
C      -1.699687000    -0.343695000     5.543639000
P      -0.178029000    -0.046092000     4.569593000
C       0.955119000    -1.378650000     5.110042000
C       0.528914000     1.489534000     5.247137000
C       0.784740000     2.569127000     4.402807000
C       1.322080000     3.745602000     4.912564000
C       1.606585000     3.848414000     6.267783000
C       1.353428000     2.774426000     7.117053000
C       0.816713000     1.599710000     6.610833000
Au     -0.515381000     0.012665000     2.338544000
Cl     -0.832362000     0.142860000     0.033324000
H      -2.412264000     0.452178000     5.338517000
H      -1.479116000    -0.365737000     6.610080000
H      -2.136595000    -1.294141000     5.241922000
H       0.546625000    -2.339462000     4.801410000
H       1.081040000    -1.367533000     6.191835000
H       1.921906000    -1.237377000     4.631963000
H       0.566286000     2.494432000     3.347226000
H       1.513516000     4.572434000     4.243079000
H       2.025267000     4.762665000     6.665530000
H       1.574631000     2.853155000     8.172571000
H       0.625333000     0.773783000     7.283284000
I       0.220692000     2.996936000     0.398167000
I       1.193548000     5.519743000     0.952034000