14
energy: -4656579.978000 kJ/mol; low freq (cm^-1): 29.95, 33.64, 45.78
C      -1.274175000     1.226044000     3.028923000
P      -0.008509000     0.177124000     2.227856000
C       1.592162000     0.737618000     2.912257000
Au     -0.139679000     0.100341000    -0.058598000
I      -0.323382000     0.006171000    -2.627859000
H      -2.264246000     0.864891000     2.758232000
H      -1.161519000     2.242902000     2.658126000
H      -1.161349000     1.213857000     4.111913000
H      -0.194211000    -1.067831000     2.863007000
H       1.565216000     0.745988000     4.000874000
H       1.792699000     1.740436000     2.540902000
H       2.383301000     0.074023000     2.569403000
Cl      0.418200000     2.920984000     0.127348000
Cl      0.833815000     4.919304000     0.597881000