24
energy: -4399730.747000 kJ/mol; low freq (cm^-1): 5.96, 22.14, 30.97
C      -1.623532000    -0.359563000     5.914841000
P      -0.139785000    -0.060274000     4.884047000
C       1.028215000    -1.370764000     5.405321000
C       0.572198000     1.494420000     5.507737000
C       0.798549000     2.556728000     4.633882000
C       1.341383000     3.747124000     5.104584000
C       1.659968000     3.880247000     6.449440000
C       1.436193000     2.823388000     7.328097000
C       0.894600000     1.634972000     6.861120000
Au     -0.568352000    -0.063414000     2.643611000
I      -1.030608000    -0.001491000     0.069599000
H      -2.353235000     0.423335000     5.720293000
H      -1.367157000    -0.359881000     6.973507000
H      -2.057455000    -1.320863000     5.644801000
H       0.621152000    -2.341761000     5.128323000
H       1.193284000    -1.338495000     6.481489000
H       1.975229000    -1.225998000     4.890091000
H       0.552457000     2.459582000     3.586002000
H       1.509205000     4.560313000     4.412665000
H       2.082326000     4.805642000     6.816366000
H       1.683818000     2.926141000     8.375676000
H       0.726115000     0.822394000     7.555627000
I       0.144849000     3.021203000     0.642666000
I       1.151604000     5.547973000     1.291583000