24
energy: -5467382.321000 kJ/mol; low freq (cm^-1): 10.91, 31.05, 36.27
C      -1.718524000    -0.212376000     5.487783000
P      -0.159975000    -0.000287000     4.550501000
C       0.886252000    -1.389673000     5.122275000
C       0.610914000     1.498892000     5.240823000
C       0.934728000     2.564196000     4.401097000
C       1.519698000     3.712871000     4.921770000
C       1.784401000     3.802610000     6.281899000
C       1.463282000     2.743014000     7.126186000
C       0.878719000     1.596050000     6.609550000
Au     -0.429882000     0.093350000     2.312814000
Cl     -0.653761000     0.312706000     0.005583000
H      -2.382212000     0.619936000     5.264190000
H      -1.525005000    -0.243115000     6.559293000
H      -2.198305000    -1.139021000     5.177208000
H       0.435220000    -2.328077000     4.804075000
H       0.984526000    -1.382800000     6.206972000
H       1.871219000    -1.301177000     4.669275000
H       0.731858000     2.500403000     3.341555000
H       1.763139000     4.528672000     4.256140000
H       2.240277000     4.695514000     6.687235000
H       1.668624000     2.811318000     8.185637000
H       0.634335000     0.781094000     7.278180000
Br      0.427589000     2.945926000     0.492814000
Br      1.317151000     5.080382000     1.048084000