24
energy: -32520314340630.210938 kJ/mol; low freq (cm^-1) (cm^-1) (cm^-1): 8.83, 24.4, 32.27
C      -1.700643000     0.115506000     5.250783000
P       0.017784000    -0.172298000     4.688384000
C       0.552526000    -1.638854000     5.645662000
C       0.985971000     1.214561000     5.362535000
C       1.794181000     1.974934000     4.518643000
C       2.542061000     3.030293000     5.028405000
C       2.484205000     3.331299000     6.382675000
C       1.679064000     2.576173000     7.231507000
C       0.933289000     1.521698000     6.725580000
Au      0.205193000    -0.426718000     2.444350000
Br      0.444840000    -0.649592000     0.013518000
H      -2.078394000     1.022741000     4.784453000
H      -1.744684000     0.219711000     6.334016000
H      -2.320511000    -0.724096000     4.940862000
H      -0.045535000    -2.498126000     5.346888000
H       0.435390000    -1.466283000     6.714804000
H       1.597896000    -1.843489000     5.425264000
H       1.843021000     1.746256000     3.463650000
H       3.164601000     3.607456000     4.359390000
H       3.064561000     4.152695000     6.779997000
H       1.633139000     2.809358000     8.286400000
H       0.313259000     0.943033000     7.397656000
I       2.511307000     1.684082000     0.529614000
I       4.281503000     3.721033000     1.174468000