14
energy: -26147332677101.511719 kJ/mol; low freq (cm^-1) (cm^-1) (cm^-1): 6.83, 22.3, 36.16
C      -1.462370000     1.078343000     5.262832000
P      -0.075812000    -0.003745000     4.761986000
C       1.438772000     0.911212000     5.228377000
Au     -0.182642000    -0.603983000     2.571752000
I      -0.423444000    -0.897649000    -0.012957000
H      -2.402073000     0.548229000     5.122436000
H      -1.466065000     1.955779000     4.617468000
H      -1.363263000     1.384416000     6.303184000
H      -0.118500000    -1.038733000     5.717897000
H       1.404938000     1.212880000     6.274149000
H       1.514842000     1.794235000     4.596224000
H       2.310362000     0.283901000     5.053827000
I      -1.370939000     2.182649000     1.143408000
I      -2.128856000     4.634671000     2.224509000