14
energy: -5088335.819000 kJ/mol; low freq (cm^-1): 37.07, 38.89, 64.33
C      -1.238367000     1.185662000     3.049405000
P       0.000371000     0.138841000     2.206044000
C       1.617969000     0.647012000     2.888638000
Au     -0.128533000     0.098272000    -0.054597000
Cl     -0.258485000     0.021811000    -2.337286000
H      -2.237344000     0.850430000     2.777949000
H      -1.111964000     2.211645000     2.710259000
H      -1.114954000     1.135434000     4.130157000
H      -0.203851000    -1.120254000     2.806110000
H       1.601820000     0.626449000     3.977243000
H       1.836380000     1.654950000     2.541907000
H       2.390873000    -0.024102000     2.519815000
Cl      0.361520000     2.924961000     0.182444000
Cl      0.683039000     4.960349000     0.506927000