14
energy: -4974556.687000 kJ/mol; low freq (cm^-1): 32.08, 36.84, 52.15
C      -1.277802000     1.241370000     3.007509000
P      -0.002020000     0.209968000     2.200775000
C       1.592763000     0.767213000     2.899922000
Au     -0.136881000     0.115980000    -0.068226000
Br     -0.338015000    -0.058747000    -2.464504000
H      -2.263820000     0.885691000     2.715820000
H      -1.160496000     2.266330000     2.661679000
H      -1.178668000     1.204130000     4.091239000
H      -0.184090000    -1.043764000     2.818952000
H       1.560754000     0.754291000     3.988375000
H       1.790082000     1.777867000     2.549013000
H       2.388542000     0.113886000     2.548239000
Cl      0.399092000     2.945349000     0.151841000
Cl      0.769889000     4.967140000     0.524882000