14
energy: -28339195977913.476562 kJ/mol; low freq (cm^-1) (cm^-1) (cm^-1): 9.71, 19.87, 35.97
C      -1.406762000     1.208403000     5.061233000
P      -0.033583000     0.109732000     4.560186000
C       1.491143000     0.929580000     5.153425000
Au     -0.089463000    -0.383143000     2.357472000
Br     -0.300702000    -0.645275000    -0.064845000
H      -2.353068000     0.712420000     4.855211000
H      -1.365207000     2.115246000     4.460017000
H      -1.343252000     1.459579000     6.118915000
H      -0.159818000    -0.976501000     5.449110000
H       1.417143000     1.169964000     6.212966000
H       1.639477000     1.843833000     4.581599000
H       2.342642000     0.273808000     4.983973000
I      -1.925104000     2.044592000     0.907312000
I      -3.254236000     4.285282000     1.830872000