24
energy: -37687995184278.109375 kJ/mol; low freq (cm^-1) (cm^-1) (cm^-1): 14.62, 27.23, 35.44
C      -1.732159000     0.125513000     2.908144000
P      -0.035946000     0.103826000     2.227181000
C       0.718466000    -1.396464000     2.958720000
C       0.826142000     1.498747000     3.018138000
C       1.487450000     2.446364000     2.238661000
C       2.144589000     3.511698000     2.842095000
C       2.145300000     3.636800000     4.225202000
C       1.488000000     2.693724000     5.009430000
C       0.830867000     1.629520000     4.409361000
Au      0.040750000     0.101565000    -0.046889000
Cl      0.153039000     0.016848000    -2.333588000
H      -2.231606000     1.031818000     2.574864000
H      -1.713282000     0.094306000     3.996475000
H      -2.275427000    -0.738380000     2.528759000
H       0.195927000    -2.275953000     2.585942000
H       0.656697000    -1.370519000     4.045882000
H       1.762396000    -1.452942000     2.658060000
H       1.478029000     2.357496000     1.162053000
H       2.649311000     4.244849000     2.228820000
H       2.654233000     4.467948000     4.693518000
H       1.485643000     2.789198000     6.086396000
H       0.321891000     0.905331000     5.031562000
Br     -1.527576000     2.570568000     0.019191000
Br     -2.757770000     4.567274000     0.432591000