24
energy: -4717703.930000 kJ/mol; low freq (cm^-1): 9.07, 23.76, 30.03
C      -1.593513000    -0.578401000     3.522537000
P      -0.200688000    -0.108685000     2.431039000
C       1.057642000    -1.400122000     2.751247000
C       0.488341000     1.415407000     3.150590000
C       0.685686000     2.535371000     2.344219000
C       1.222308000     3.700088000     2.880711000
C       1.563949000     3.750515000     4.225558000
C       1.369178000     2.636014000     5.037344000
C       0.834286000     1.472566000     4.503910000
Au     -0.773335000     0.088190000     0.246553000
Br     -1.365587000     0.381476000    -2.115637000
H      -2.365411000     0.185353000     3.462334000
H      -1.262897000    -0.678499000     4.555311000
H      -2.007465000    -1.525560000     3.180785000
H       0.666729000    -2.365527000     2.433991000
H       1.310701000    -1.438529000     3.810171000
H       1.951841000    -1.174854000     2.174342000
H       0.416174000     2.502610000     1.298505000
H       1.366075000     4.559302000     2.240723000
H       1.980654000     4.656138000     4.644555000
H       1.633998000     2.674498000     6.084967000
H       0.689671000     0.614521000     5.147099000
I      -0.249782000     3.289224000    -1.553201000
I       0.767123000     5.779001000    -0.874721000