14
energy: -33506929332625.363281 kJ/mol; low freq (cm^-1) (cm^-1) (cm^-1): 33.01, 37.03, 50.38
C      -1.235861000     1.169952000     3.065075000
P       0.005885000     0.129829000     2.220473000
C       1.623771000     0.637782000     2.900640000
Au     -0.122649000     0.093247000    -0.044481000
Cl     -0.248492000     0.014421000    -2.326300000
H      -2.233993000     0.835806000     2.789347000
H      -1.107836000     2.197283000     2.730264000
H      -1.114589000     1.114655000     4.145768000
H      -0.195577000    -1.134462000     2.810492000
H       1.609500000     0.612237000     3.989115000
H       1.838198000     1.647802000     2.557257000
H       2.397233000    -0.029998000     2.526962000
Br      0.327119000     2.973107000     0.099067000
Br      0.655763000     5.308959000     0.441336000