14
energy: -29123482440705.394531 kJ/mol; low freq (cm^-1) (cm^-1) (cm^-1): 9.98, 16.22, 31.46
C      -0.872346000     1.405456000     5.175281000
P       0.069356000     0.019311000     4.440593000
C       1.796728000     0.260374000     4.990842000
Au     -0.101529000    -0.221049000     2.211756000
Cl     -0.063119000    -0.347263000    -0.104863000
H      -1.933188000     1.267095000     4.977075000
H      -0.550770000     2.333039000     4.705118000
H      -0.703376000     1.463286000     6.249533000
H      -0.355110000    -1.079522000     5.214094000
H       1.849163000     0.398359000     6.069759000
H       2.204778000     1.133354000     4.484122000
H       2.388228000    -0.605309000     4.699963000
I       2.638893000     1.137135000     0.754242000
I       4.949398000     2.409676000     1.534800000