24
energy: -34711873397709.308594 kJ/mol; low freq (cm^-1) (cm^-1) (cm^-1): 7.41, 18.82, 30.65
C      -1.702347000    -0.030793000     5.548716000
P      -0.024909000    -0.061886000     4.814915000
C       0.795489000    -1.471467000     5.643395000
C       0.786020000     1.438232000     5.454528000
C       1.152074000     2.452783000     4.570168000
C       1.722881000     3.626649000     5.047844000
C       1.936545000     3.790464000     6.409761000
C       1.576966000     2.780172000     7.297770000
C       1.000861000     1.609920000     6.825373000
Au     -0.056607000    -0.136669000     2.535199000
I      -0.130288000     0.087576000    -0.072060000
H      -2.231530000     0.835727000     5.157693000
H      -1.644872000     0.038410000     6.634683000
H      -2.241976000    -0.933508000     5.265634000
H       0.303368000    -2.394317000     5.340913000
H       0.745004000    -1.375176000     6.727219000
H       1.835951000    -1.505646000     5.329400000
H       0.979097000     2.335729000     3.510018000
H       1.985328000     4.411128000     4.352208000
H       2.378779000     4.704615000     6.782434000
H       1.739816000     2.909759000     8.358551000
H       0.717237000     0.839863000     7.530569000
Br     -0.377711000     2.980622000     0.999826000
Br     -0.553448000     5.187543000     1.987037000