14
energy: -35075145824458.585938 kJ/mol; low freq (cm^-1) (cm^-1) (cm^-1): 5.19, 15.5, 54.73
C      -1.208759000     0.987895000     5.396859000
P       0.101630000     0.148269000     4.433213000
C       1.678303000     0.786452000     5.108562000
Au     -0.077858000     0.277961000     2.197511000
Cl     -0.181576000     0.486498000    -0.100149000
H      -2.176358000     0.568592000     5.128732000
H      -1.209209000     2.045916000     5.140958000
H      -1.041492000     0.871127000     6.466617000
H       0.059541000    -1.161150000     4.953300000
H       1.709468000     0.684513000     6.192339000
H       1.777418000     1.835502000     4.835502000
H       2.506219000     0.238734000     4.663023000
Cl      2.348946000     1.942808000     0.328157000
Cl      4.117817000     2.951097000     0.676504000