14
energy: -30530740101303.585938 kJ/mol; low freq (cm^-1) (cm^-1) (cm^-1): 22.45, 27.92, 31.51
C      -1.072865000     1.421630000     2.958962000
P       0.034472000     0.146942000     2.258114000
C       1.677540000     0.481384000     2.986529000
Au      0.021204000     0.042214000    -0.033868000
I       0.044040000     0.037548000    -2.611000000
H      -2.099082000     1.211847000     2.664579000
H      -0.782615000     2.386165000     2.546281000
H      -0.998506000     1.447674000     4.044960000
H      -0.372697000    -1.025189000     2.927720000
H       1.617376000     0.540004000     4.072125000
H       2.040579000     1.425781000     2.585182000
H       2.369073000    -0.307381000     2.697638000
Br      1.003565000     2.822100000    -0.055217000
Br      1.762360000     4.968494000     0.668258000