24
energy: -5694880.554000 kJ/mol; low freq (cm^-1): 17.49, 30.73, 41.33
C      -1.734377000     0.126225000     2.897750000
P      -0.037070000     0.107645000     2.216520000
C       0.716971000    -1.388635000     2.956039000
C       0.820718000     1.504943000     3.010028000
C       1.483511000     2.452315000     2.231194000
C       2.144591000     3.514546000     2.835794000
C       2.146396000     3.638169000     4.219116000
C       1.486177000     2.696505000     5.002452000
C       0.826277000     1.634530000     4.401262000
Au      0.047611000     0.109581000    -0.052487000
Cl      0.173222000     0.032145000    -2.340075000
H      -2.237906000     1.028998000     2.561520000
H      -1.715748000     0.099206000     3.986212000
H      -2.275243000    -0.740666000     2.521791000
H       0.197694000    -2.269632000     2.582209000
H       0.649510000    -1.360368000     4.042766000
H       1.762257000    -1.444637000     2.660133000
H       1.474938000     2.362261000     1.154386000
H       2.652788000     4.246139000     2.223426000
H       2.658664000     4.466794000     4.688305000
H       1.484816000     2.790629000     6.079565000
H       0.316414000     0.910277000     5.022642000
Cl     -1.522547000     2.521895000     0.135374000
Cl     -2.631502000     4.256065000     0.464647000