24
energy: -33304558760096.414062 kJ/mol; low freq (cm^-1) (cm^-1) (cm^-1): 11.67, 20.25, 23.86
C      -1.716168000     0.018911000     2.948626000
P      -0.028022000     0.040728000     2.247659000
C       0.782468000    -1.426816000     2.984986000
C       0.800715000     1.469499000     3.013333000
C       1.482545000     2.390134000     2.219063000
C       2.115770000     3.481281000     2.801151000
C       2.071190000     3.660023000     4.177735000
C       1.394183000     2.743868000     4.976716000
C       0.761792000     1.653089000     4.397828000
Au     -0.017960000     0.051390000    -0.025076000
Cl     -0.033330000     0.052519000    -2.318484000
H      -2.242430000     0.910237000     2.614821000
H      -1.689259000    -0.007586000     4.036772000
H      -2.239985000    -0.860174000     2.576986000
H       0.283145000    -2.326851000     2.629790000
H       0.735172000    -1.388141000     4.072567000
H       1.823343000    -1.453943000     2.669861000
H       1.506660000     2.259330000     1.146805000
H       2.636146000     4.193487000     2.176383000
H       2.559443000     4.512605000     4.629225000
H       1.356468000     2.881240000     6.048483000
H       0.236583000     0.950404000     5.030997000
I      -1.691620000     2.698747000    -0.099756000
I      -3.036872000     5.016142000     0.544097000