24
energy: -34711893100348.730469 kJ/mol; low freq (cm^-1) (cm^-1) (cm^-1): 9.34, 26.45, 35.97
C      -1.706717000     0.104754000     2.882585000
P       0.046816000    -0.195629000     2.449964000
C       0.519074000    -1.621644000     3.497161000
C       0.966398000     1.222076000     3.125760000
C       1.826327000     1.949812000     2.303625000
C       2.536591000     3.029608000     2.816143000
C       2.390019000     3.386791000     4.149880000
C       1.533549000     2.664147000     4.976525000
C       0.824570000     1.585796000     4.468442000
Au      0.414411000    -0.517911000     0.223097000
I       0.967648000    -0.738208000    -2.322490000
H      -2.054412000     0.991391000     2.357048000
H      -1.824228000     0.250525000     3.955566000
H      -2.302099000    -0.749566000     2.564802000
H      -0.054961000    -2.495222000     3.192660000
H       0.329512000    -1.408776000     4.548566000
H       1.577585000    -1.828509000     3.355703000
H       1.946106000     1.678204000     1.264232000
H       3.199513000     3.579542000     2.163698000
H       2.941683000     4.227007000     4.548761000
H       1.419082000     2.941081000     6.015527000
H       0.163464000     1.032632000     5.122655000
Br      2.855463000     1.535744000    -1.501221000
Br      4.314680000     3.330582000    -0.759432000