24
energy: -38471972031282.484375 kJ/mol; low freq (cm^-1) (cm^-1) (cm^-1): 12.16, 37.03, 39.15
C      -1.671537000     0.079337000     5.204218000
P       0.065605000    -0.162092000     4.677082000
C       0.621826000    -1.604268000     5.659002000
C       0.974130000     1.262299000     5.358995000
C       1.719189000     2.080441000     4.509885000
C       2.414267000     3.170503000     5.021262000
C       2.368882000     3.448051000     6.381003000
C       1.626912000     2.635643000     7.234268000
C       0.932154000     1.547569000     6.726931000
Au      0.345139000    -0.385695000     2.440961000
Br      0.753788000    -0.475792000     0.033590000
H      -2.066872000     0.970692000     4.722107000
H      -1.737626000     0.193032000     6.285565000
H      -2.261390000    -0.780818000     4.891811000
H       0.058411000    -2.483034000     5.349616000
H       0.471501000    -1.432256000     6.724026000
H       1.678133000    -1.777987000     5.466067000
H       1.758466000     1.869311000     3.450721000
H       2.986051000     3.794092000     4.349118000
H       2.909763000     4.295650000     6.779010000
H       1.590475000     2.850505000     8.293424000
H       0.359639000     0.924958000     7.401923000
Cl      2.276944000     1.951664000     0.671446000
Cl      3.343607000     3.680928000     1.197475000