14
energy: -4860828.600000 kJ/mol; low freq (cm^-1): 3.6, 13.1, 48.25
C      -1.067805000     1.268906000     5.207768000
P       0.097429000     0.065676000     4.470493000
C       1.728992000     0.469807000     5.192867000
Au      0.084413000    -0.050326000     2.226885000
Cl      0.162336000    -0.058259000    -0.089468000
H      -2.083173000     1.016363000     4.909312000
H      -0.832732000     2.261251000     4.827177000
H      -0.992642000     1.266748000     6.294173000
H      -0.243846000    -1.130117000     5.133584000
H       1.673676000     0.519488000     6.279300000
H       2.057737000     1.428960000     4.796650000
H       2.450148000    -0.288703000     4.895402000
Br      2.031186000     2.160860000     0.411483000
Br      3.532036000     3.938426000     0.855377000