14
energy: -4974554.846000 kJ/mol; low freq (cm^-1): 6.71, 13.96, 51.09
C      -0.920546000     1.659086000     5.148030000
P       0.014354000     0.202875000     4.552428000
C       1.586624000     0.223895000     5.489770000
Au      0.203618000     0.079991000     2.307628000
Br      0.394552000     0.112881000    -0.119383000
H      -1.923217000     1.637152000     4.726110000
H      -0.422718000     2.561293000     4.797260000
H      -0.978326000     1.669538000     6.235460000
H      -0.676496000    -0.868784000     5.153357000
H       1.400748000     0.292504000     6.560647000
H       2.175895000     1.079897000     5.165990000
H       2.147611000    -0.682607000     5.271953000
Cl     -0.211097000     2.999661000     0.468913000
Cl     -0.630391000     4.992673000     0.909117000