14
energy: -26147325359868.121094 kJ/mol; low freq (cm^-1) (cm^-1) (cm^-1): 6.68, 20.64, 37.68
C      -0.875394000     1.530878000     3.047609000
P      -0.202256000    -0.001555000     2.306279000
C       1.499692000    -0.161542000     2.956184000
Au     -0.289291000    -0.212423000     0.044352000
I      -0.058923000    -0.565351000    -2.533631000
H      -1.930435000     1.618598000     2.796075000
H      -0.348322000     2.385471000     2.627258000
H      -0.755577000     1.525458000     4.130002000
H      -0.898708000    -1.004595000     3.009526000
H       1.511523000    -0.102540000     4.043442000
H       2.108894000     0.637553000     2.537442000
H       1.921232000    -1.109822000     2.628557000
I       2.581609000    -1.802234000    -0.738792000
I       4.655938000    -2.754130000     0.855960000