24
energy: -36903691581695.179688 kJ/mol; low freq (cm^-1) (cm^-1) (cm^-1): 14.26, 25.23, 32.49
C      -1.618635000    -0.065096000     2.945804000
P       0.069953000    -0.007867000     2.238719000
C       0.904473000    -1.467072000     2.957695000
C       0.859612000     1.437093000     3.015989000
C       1.369872000     2.465408000     2.225245000
C       1.972555000     3.568467000     2.817480000
C       2.069625000     3.650772000     4.200457000
C       1.561502000     2.628234000     4.995752000
C       0.958932000     1.526064000     4.406880000
Au      0.083863000     0.015774000    -0.045865000
Br      0.024567000     0.031274000    -2.459280000
H      -2.170274000     0.814346000     2.620713000
H      -1.583530000    -0.087866000     4.034228000
H      -2.127143000    -0.955511000     2.579560000
H       0.419074000    -2.369036000     2.588655000
H       0.855111000    -1.446125000     4.045330000
H       1.943188000    -1.468039000     2.636487000
H       1.305644000     2.397228000     1.148899000
H       2.370172000     4.358408000     2.195968000
H       2.542293000     4.507767000     4.660137000
H       1.637081000     2.688820000     6.072605000
H       0.570422000     0.737243000     5.037347000
Br      3.004394000    -0.162425000     0.075060000
Br      5.330442000    -0.231543000     0.589069000