14
energy: -4747053.062000 kJ/mol; low freq (cm^-1): 28.77, 35.85, 38.51
C      -1.272767000     1.230561000     3.021042000
P       0.005356000     0.200560000     2.218319000
C       1.599963000     0.749050000     2.922188000
Au     -0.118246000     0.113368000    -0.055742000
Br     -0.305749000    -0.064495000    -2.451729000
H      -2.256688000     0.903705000     2.691267000
H      -1.126726000     2.263127000     2.710060000
H      -1.204880000     1.158571000     4.105359000
H      -0.183334000    -1.058252000     2.823698000
H       1.564936000     0.736102000     4.010542000
H       1.800901000     1.759073000     2.571008000
H       2.393485000     0.092092000     2.572237000
Br      0.356349000     2.994314000     0.060099000
Br      0.706730000     5.328087000     0.427167000