24
energy: -5353606.880000 kJ/mol; low freq (cm^-1): 9.4, 29.79, 35.72
C      -1.711016000    -0.234399000     5.592585000
P      -0.141403000    -0.029714000     4.672122000
C       0.896798000    -1.417634000     5.261552000
C       0.623223000     1.473224000     5.359311000
C       0.950449000     2.535095000     4.516577000
C       1.530319000     3.687071000     5.035869000
C       1.786307000     3.782961000     6.397170000
C       1.461586000     2.726747000     7.244361000
C       0.882033000     1.576595000     6.729416000
Au     -0.390190000     0.046224000     2.422215000
Br     -0.598771000     0.265817000    -0.010485000
H      -2.370603000     0.597616000     5.356077000
H      -1.529371000    -0.258150000     6.666379000
H      -2.188793000    -1.162285000     5.282669000
H       0.447494000    -2.356979000     4.943633000
H       0.984129000    -1.405463000     6.347153000
H       1.886459000    -1.333103000     4.818131000
H       0.754814000     2.466923000     3.455870000
H       1.775876000     4.499742000     4.367377000
H       2.238345000     4.678377000     6.801276000
H       1.660215000     2.800173000     8.304749000
H       0.634515000     0.764168000     7.399971000
Br      0.484510000     2.947006000     0.614270000
Br      1.353043000     5.090368000     1.251258000