17
energy: -31242387780768.714844 kJ/mol; low freq (cm^-1) (cm^-1) (cm^-1): 0.38, 19.29, 41.82
C      -1.769052000    -0.237606000     5.138194000
P      -0.016699000     0.029750000     4.690966000
C       0.892511000    -1.309609000     5.542890000
C       0.466441000     1.550800000     5.584855000
Au      0.227823000     0.106455000     2.430338000
I       0.103359000     0.151862000    -0.183640000
H      -2.372978000     0.562590000     4.715047000
H      -1.897030000    -0.265906000     6.220799000
H      -2.110549000    -1.173907000     4.701303000
H       0.597141000    -2.266982000     5.118113000
H       0.678261000    -1.303650000     6.612205000
H       1.960993000    -1.177996000     5.384081000
H      -0.097913000     2.391947000     5.187106000
H       0.268866000     1.451808000     6.652799000
H       1.525907000     1.741619000     5.425764000
Br     -2.782261000    -0.182766000     1.027577000
Br     -4.948186000    -0.435507000     2.069258000