17
energy: -34218554104889.328125 kJ/mol; low freq (cm^-1) (cm^-1) (cm^-1): 30.18, 32.56, 49.9
C      -1.601153000     0.009690000     2.962021000
P       0.079334000     0.000716000     2.239288000
C       0.898072000    -1.445221000     2.994661000
C       0.909532000     1.443690000     2.987408000
Au      0.079622000    -0.006869000    -0.033676000
Cl     -0.003440000    -0.015896000    -2.322872000
H      -2.136261000     0.895152000     2.623874000
H      -1.548552000     0.011269000     4.050943000
H      -2.144941000    -0.871527000     2.626709000
H       0.399196000    -2.355521000     2.667377000
H       0.860864000    -1.378672000     4.082013000
H       1.933422000    -1.476811000     2.662101000
H       0.418157000     2.356394000     2.655593000
H       0.871520000     1.382605000     4.075057000
H       1.945224000     1.465278000     2.655152000
Br      2.974953000    -0.001352000     0.097300000
Br      5.343130000     0.030233000     0.410713000