17
energy: -4214385.596000 kJ/mol; low freq (cm^-1): 17.13, 26.49, 28.07
C      -1.680454000    -0.076082000     2.984209000
P      -0.003696000    -0.054282000     2.260560000
C       0.810484000    -1.533851000     2.955678000
C       0.832571000     1.356231000     3.071063000
Au     -0.014471000    -0.007440000    -0.018202000
Br     -0.075762000    -0.016927000    -2.436405000
H      -2.215497000     0.823333000     2.685299000
H      -1.629151000    -0.127134000     4.071845000
H      -2.215902000    -0.942145000     2.599880000
H       0.315339000    -2.421583000     2.566923000
H       0.753203000    -1.526583000     4.044235000
H       1.853369000    -1.553705000     2.644927000
H       0.350025000     2.284060000     2.769408000
H       0.786502000     1.258931000     4.155925000
H       1.873293000     1.389432000     2.753961000
I      -1.560960000    -2.723683000    -0.192786000
I      -2.848267000    -5.044773000     0.576512000