17
energy: -33434245935796.941406 kJ/mol; low freq (cm^-1) (cm^-1) (cm^-1): 26.56, 30.22, 36.92
C      -1.575667000    -0.097656000     2.966251000
P       0.105658000    -0.023161000     2.250077000
C       0.981279000    -1.442992000     2.992545000
C       0.877014000     1.443791000     3.016295000
Au      0.080089000     0.065109000    -0.031305000
Br     -0.096239000     0.236210000    -2.433252000
H      -2.151613000     0.760466000     2.624889000
H      -1.532306000    -0.097440000     4.055478000
H      -2.071317000    -1.003995000     2.623022000
H       0.519489000    -2.370497000     2.659609000
H       0.936315000    -1.383221000     4.080280000
H       2.018591000    -1.431913000     2.665977000
H       0.356715000     2.339648000     2.682542000
H       0.831973000     1.378123000     4.103382000
H       1.914402000     1.504212000     2.693438000
Br      2.973884000    -0.081208000     0.097449000
Br      5.329870000    -0.307897000     0.446356000