17
energy: -26858953188923.230469 kJ/mol; low freq (cm^-1) (cm^-1) (cm^-1): 3.62, 17.75, 34.6
C      -1.629691000    -0.129602000     3.164711000
P      -0.043242000     0.009194000     2.266642000
C       0.983152000    -1.359359000     2.909219000
C       0.750761000     1.507965000     2.947367000
Au     -0.082211000     0.022858000    -0.009120000
I       0.374601000     0.033172000    -2.588063000
H      -2.270254000     0.708768000     2.897189000
H      -1.462559000    -0.130593000     4.242185000
H      -2.128871000    -1.052104000     2.873888000
H       0.551195000    -2.312306000     2.609618000
H       1.048588000    -1.312703000     3.996526000
H       1.980688000    -1.280236000     2.479587000
H       0.169352000     2.386721000     2.675112000
H       0.828178000     1.442125000     4.032902000
H       1.746229000     1.601810000     2.516342000
I       3.183597000    -0.026464000    -0.632962000
I       5.334560000    -0.097846000     1.137887000