17
energy: -34218532957128.250000 kJ/mol; low freq (cm^-1) (cm^-1) (cm^-1): 5.36, 12.64, 46.59
C      -1.741400000    -0.174757000     5.155235000
P      -0.049631000    -0.078400000     4.470204000
C       0.874154000    -1.387731000     5.350964000
C       0.623882000     1.480652000     5.147579000
Au     -0.014687000    -0.224527000     2.224850000
Cl     -0.115221000    -0.356784000    -0.092790000
H      -2.346050000     0.625521000     4.732677000
H      -1.723014000    -0.087232000     6.241803000
H      -2.190129000    -1.125138000     4.872515000
H       0.476485000    -2.360544000     5.068106000
H       0.788550000    -1.259037000     6.430213000
H       1.922568000    -1.346637000     5.061635000
H       0.065642000     2.320556000     4.738340000
H       0.549940000     1.489680000     6.235313000
H       1.666511000     1.582941000     4.852678000
Br     -2.934529000     0.233531000     0.446556000
Br     -5.205568000     0.711062000     0.931206000