17
energy: -5191570.601000 kJ/mol; low freq (cm^-1): 30.89, 37.43, 61.15
C      -1.589134000     0.006394000     2.961770000
P       0.084075000     0.001955000     2.223471000
C       0.912617000    -1.441242000     2.976186000
C       0.917414000     1.445595000     2.969946000
Au      0.078497000    -0.003263000    -0.045811000
Cl     -0.004037000    -0.008074000    -2.336372000
H      -2.129952000     0.889822000     2.627476000
H      -1.526767000     0.008732000     4.050189000
H      -2.132965000    -0.876687000     2.631459000
H       0.422171000    -2.354338000     2.644116000
H       0.872156000    -1.380211000     4.063825000
H       1.949183000    -1.464061000     2.647063000
H       0.430970000     2.358979000     2.632845000
H       0.875530000     1.390023000     4.057820000
H       1.954390000     1.462676000     2.641810000
Cl      2.918239000    -0.000155000     0.188795000
Cl      4.987134000     0.007010000     0.499074000