17
energy: -26858953308383.257812 kJ/mol; low freq (cm^-1) (cm^-1) (cm^-1): 4.32, 21.63, 38.16
C      -1.799941000    -0.266373000     5.076919000
P      -0.032195000    -0.028911000     4.677405000
C       0.836429000    -1.346885000     5.602295000
C       0.433626000     1.517137000     5.537160000
Au      0.301131000    -0.015027000     2.424113000
I       0.346442000     0.003225000    -0.193828000
H      -2.382938000     0.524430000     4.609145000
H      -1.961595000    -0.258755000     6.155322000
H      -2.136380000    -1.213565000     4.660230000
H       0.547842000    -2.315143000     5.197988000
H       0.586273000    -1.305722000     6.662985000
H       1.910686000    -1.227997000     5.475844000
H      -0.109795000     2.348494000     5.092400000
H       0.198517000     1.455355000     6.600286000
H       1.499489000     1.694851000     5.408662000
I      -2.804509000     0.023392000     1.060260000
I      -5.335143000     0.039281000     2.226346000