17
energy: -5077791.056000 kJ/mol; low freq (cm^-1): 29.33, 33.65, 48.48
C      -1.564504000    -0.084794000     2.962726000
P       0.112348000    -0.028903000     2.233925000
C       0.978198000    -1.454721000     2.977810000
C       0.901696000     1.431403000     2.995530000
Au      0.081628000     0.052766000    -0.043835000
Br     -0.101493000     0.215900000    -2.447137000
H      -2.134438000     0.777233000     2.621169000
H      -1.513784000    -0.080365000     4.051644000
H      -2.071188000    -0.987640000     2.626458000
H       0.503092000    -2.378675000     2.653830000
H       0.943063000    -1.388822000     4.065596000
H       2.013042000    -1.457893000     2.643670000
H       0.386107000     2.331424000     2.665730000
H       0.864143000     1.365733000     4.082938000
H       1.937047000     1.484115000     2.665453000
Cl      2.920013000    -0.072568000     0.202682000
Cl      4.984004000    -0.236613000     0.534843000