17
energy: -29835106728987.363281 kJ/mol; low freq (cm^-1) (cm^-1) (cm^-1): 2.83, 14.18, 32.97
C      -1.755885000     0.288412000     4.952392000
P      -0.022197000     0.068049000     4.418071000
C       0.502732000    -1.495075000     5.207841000
C       0.905042000     1.362279000     5.316836000
Au      0.156347000     0.100886000     2.173840000
Cl      0.117205000     0.111129000    -0.151777000
H      -2.119793000     1.251578000     4.599662000
H      -1.836334000     0.240672000     6.038556000
H      -2.370602000    -0.488483000     4.501589000
H      -0.071373000    -2.318603000     4.787407000
H       0.343016000    -1.453065000     6.285537000
H       1.557303000    -1.669092000     5.002649000
H       0.589284000     2.341953000     4.963205000
H       0.726028000     1.287656000     6.389721000
H       1.968981000     1.249788000     5.116938000
I      -2.909760000    -0.245213000     0.728191000
I      -5.524709000    -0.548487000     1.535366000