17
energy: -29835114109514.582031 kJ/mol; low freq (cm^-1) (cm^-1) (cm^-1): 21.9, 28.46, 39.04
C      -1.699294000     0.051398000     2.974966000
P      -0.025401000     0.041527000     2.245279000
C       0.805325000    -1.394147000     3.016258000
C       0.801393000     1.496683000     2.975264000
Au     -0.013954000     0.016920000    -0.026020000
Cl     -0.001557000    -0.012374000    -2.318936000
H      -2.233488000     0.929277000     2.617209000
H      -1.641739000     0.072533000     4.063231000
H      -2.238711000    -0.838038000     2.654762000
H       0.316365000    -2.311414000     2.693443000
H       0.762803000    -1.323273000     4.103271000
H       1.844967000    -1.425474000     2.695535000
H       0.309980000     2.398189000     2.614926000
H       0.750625000     1.458711000     4.063439000
H       1.842519000     1.518079000     2.658729000
I      -1.566249000     2.712461000    -0.094232000
I      -2.902419000     5.055877000     0.496538000