17
energy: -4214386.242000 kJ/mol; low freq (cm^-1): 4.57, 17.42, 36.32
C      -1.515501000    -0.354534000     5.245454000
P       0.123519000     0.034884000     4.534529000
C       1.170353000    -1.392795000     4.988012000
C       0.748551000     1.409948000     5.565047000
Au      0.143580000     0.385177000     2.301084000
Br      0.300618000     0.525346000    -0.140668000
H      -2.189003000     0.485268000     5.085503000
H      -1.431620000    -0.556841000     6.313526000
H      -1.925718000    -1.227647000     4.741565000
H       0.825845000    -2.275289000     4.452357000
H       1.134729000    -1.573722000     6.062505000
H       2.196150000    -1.196520000     4.682061000
H       0.123758000     2.288286000     5.414561000
H       0.741061000     1.133263000     6.619611000
H       1.764848000     1.652662000     5.260496000
I       1.782127000    -2.209884000     0.871643000
I       3.032447000    -4.487534000     1.821702000