17
energy: -32810591004694.445312 kJ/mol; low freq (cm^-1) (cm^-1) (cm^-1): 28.0, 30.59, 39.99
C      -1.778292000     0.137079000     3.020649000
P      -0.131006000    -0.020592000     2.247118000
C       0.554889000    -1.561335000     2.948413000
C       0.863617000     1.311787000     3.009585000
Au     -0.183052000     0.050614000    -0.045674000
I      -0.228712000     0.220583000    -2.621953000
H      -2.228900000     1.081059000     2.720192000
H      -1.695991000     0.101671000     4.107228000
H      -2.411008000    -0.677043000     2.673457000
H      -0.038521000    -2.403597000     2.599330000
H       0.536605000    -1.524955000     4.037963000
H       1.579643000    -1.691703000     2.605774000
H       0.467663000     2.278310000     2.703544000
H       0.839696000     1.236326000     4.096994000
H       1.892942000     1.236271000     2.663558000
Cl     -1.766770000    -2.313717000     0.147146000
Cl     -2.881043000    -4.041246000     0.570247000