17
energy: -4850287.364000 kJ/mol; low freq (cm^-1): 3.49, 9.47, 43.85
C      -1.558709000    -0.284664000     5.272995000
P       0.118580000     0.000531000     4.603591000
C       1.103454000    -1.404071000     5.234277000
C       0.736048000     1.447524000     5.535339000
Au      0.245021000     0.220611000     2.358650000
Br      0.487960000     0.369337000    -0.069807000
H      -2.202502000     0.551207000     5.006162000
H      -1.524506000    -0.386578000     6.358026000
H      -1.971386000    -1.192002000     4.836018000
H       0.743376000    -2.327112000     4.783893000
H       1.028327000    -1.471492000     6.319954000
H       2.144758000    -1.270371000     4.947337000
H       0.146144000     2.323706000     5.272996000
H       0.671638000     1.271965000     6.609393000
H       1.771995000     1.634918000     5.258980000
Br      1.861185000    -2.256446000     0.522852000
Br      2.968281000    -4.326600000     0.962607000