17
energy: -35002473641900.546875 kJ/mol; low freq (cm^-1) (cm^-1) (cm^-1): 2.69, 13.95, 49.29
C      -1.563031000    -0.354006000     5.232049000
P       0.113711000     0.001558000     4.594180000
C       1.141817000    -1.363633000     5.243920000
C       0.653154000     1.466785000     5.546911000
Au      0.254303000     0.213525000     2.349250000
Br      0.482055000     0.316438000    -0.077730000
H      -2.233373000     0.458642000     4.958635000
H      -1.546490000    -0.463911000     6.316680000
H      -1.932068000    -1.272241000     4.779072000
H       0.831253000    -2.298583000     4.781423000
H       1.044087000    -1.439602000     6.327167000
H       2.182926000    -1.184642000     4.982171000
H       0.030767000     2.319188000     5.281247000
H       0.576084000     1.279022000     6.618188000
H       1.684961000     1.701005000     5.291990000
Cl      1.906369000    -2.246319000     0.556269000
Cl      2.888112000    -4.024841000     1.032909000