17
energy: -32810601354606.394531 kJ/mol; low freq (cm^-1) (cm^-1) (cm^-1): 6.46, 11.85, 43.44
C      -1.728764000    -0.345720000     5.266737000
P      -0.015158000    -0.012546000     4.721285000
C       0.994019000    -1.280982000     5.570183000
C       0.435475000     1.555049000     5.550411000
Au      0.150554000     0.016002000     2.451837000
I       0.037888000     0.023735000    -0.154681000
H      -2.389415000     0.413369000     4.852603000
H      -1.800532000    -0.344300000     6.354906000
H      -2.044910000    -1.311979000     4.878668000
H       0.726762000    -2.264388000     5.188447000
H       0.829093000    -1.250702000     6.647826000
H       2.046641000    -1.104918000     5.357397000
H      -0.185243000     2.357619000     5.156951000
H       0.292904000     1.478872000     6.628956000
H       1.476204000     1.789530000     5.335577000
Cl     -2.862828000    -0.227314000     0.865753000
Cl     -4.823990000    -0.400185000     1.651503000