17
energy: -5191566.680000 kJ/mol; low freq (cm^-1): 4.35, 14.55, 53.33
C      -1.727726000    -0.155805000     5.213520000
P      -0.052553000    -0.072478000     4.484894000
C       0.876533000    -1.395358000     5.340597000
C       0.652337000     1.474318000     5.160168000
Au     -0.055891000    -0.208720000     2.238325000
Cl     -0.157032000    -0.337620000    -0.070575000
H      -2.332957000     0.656155000     4.814758000
H      -1.681489000    -0.079234000     6.300074000
H      -2.194525000    -1.098239000     4.933358000
H       0.463689000    -2.363091000     5.062064000
H       0.815187000    -1.270560000     6.421981000
H       1.918996000    -1.363529000     5.029331000
H       0.095684000     2.323835000     4.768993000
H       0.601655000     1.475889000     6.249300000
H       1.689625000     1.567354000     4.844040000
Cl     -2.987389000     0.240702000     0.361460000
Cl     -4.985123000     0.649536000     0.714795000