17
energy: -4532311.896000 kJ/mol; low freq (cm^-1): 20.14, 26.51, 27.69
C      -1.612770000    -0.013305000     3.047425000
P       0.033093000    -0.011156000     2.248595000
C       0.893768000    -1.457421000     2.958417000
C       0.896181000     1.427478000     2.970964000
Au      0.028864000     0.000655000    -0.048519000
I       0.097227000     0.019456000    -2.629121000
H      -2.166604000     0.871080000     2.737767000
H      -1.512372000    -0.016725000     4.133103000
H      -2.166775000    -0.895671000     2.732302000
H       0.387304000    -2.369670000     2.648836000
H       0.908101000    -1.398912000     4.046919000
H       1.913061000    -1.479071000     2.578085000
H       0.390448000     2.343118000     2.670306000
H       0.911749000     1.358883000     4.058833000
H       1.914978000     1.451340000     2.589438000
Br      2.961919000    -0.001769000    -0.008086000
Br      5.233037000    -0.004936000     0.748305000