11
energy: -25435728292679.832031 kJ/mol; low freq (cm^-1) (cm^-1) (cm^-1): 13.32, 24.4, 37.38
P       0.180413000    -0.014796000     4.683087000
C       1.961893000     0.070492000     5.100276000
Au     -0.248548000     0.011047000     2.452696000
I      -0.410337000     0.045941000    -0.145318000
H      -0.396227000     1.010782000     5.457011000
H      -0.282264000    -1.131483000     5.405652000
H       2.118345000     0.049263000     6.176359000
H       2.373812000     0.985330000     4.679719000
H       2.469895000    -0.768988000     4.630387000
I       2.821707000     0.014213000     1.071652000
I       5.401505000     0.001218000     2.103852000