11
energy: -31387377780695.187500 kJ/mol; low freq (cm^-1) (cm^-1) (cm^-1): 9.38, 12.54, 46.87
P       0.011624000    -0.023114000     2.369996000
C       1.640659000     0.209682000     3.177741000
Au      0.095842000    -0.028687000     0.103527000
I       0.560930000    -0.019031000    -2.452067000
H      -0.806488000     0.945469000     2.983622000
H      -0.504758000    -1.178192000     2.988832000
H       1.554746000     0.183255000     4.261604000
H       2.051144000     1.165834000     2.860057000
H       2.312549000    -0.575091000     2.836429000
Cl      3.299071000     0.020673000    -0.915984000
Cl      5.089949000     0.042045000     0.195576000