11
energy: -4007919.193000 kJ/mol; low freq (cm^-1): 15.9, 20.18, 36.11
P      -0.018566000    -0.274894000     2.319908000
C       1.324510000     0.726014000     3.061022000
Au     -0.284504000     0.061569000     0.105557000
Br     -0.354709000     0.632181000    -2.264564000
H      -1.130833000    -0.008467000     3.141264000
H       0.266851000    -1.587698000     2.742004000
H       1.411918000     0.545446000     4.129956000
H       1.117323000     1.777535000     2.873112000
H       2.258089000     0.475642000     2.561616000
I       1.831407000     2.562372000    -0.700990000
I       3.641415000     4.137580000     0.663269000