11
energy: -31387377719669.238281 kJ/mol; low freq (cm^-1) (cm^-1) (cm^-1): 10.92, 13.04, 47.14
P       0.133526000     0.042508000     4.682682000
C       1.880401000    -0.035110000     5.232752000
Au     -0.132366000    -0.067197000     2.432997000
I      -0.063152000    -0.173341000    -0.161671000
H      -0.367077000     1.191674000     5.325066000
H      -0.505011000    -0.944582000     5.458578000
H       1.961280000     0.046270000     6.314259000
H       2.431062000     0.772215000     4.754364000
H       2.307028000    -0.978162000     4.897586000
Cl      2.867004000     0.109819000     0.928302000
Cl      4.797722000     0.308925000     1.750458000