11
energy: -32795296466679.191406 kJ/mol; low freq (cm^-1) (cm^-1) (cm^-1): 32.66, 34.27, 45.48
P       0.137523000    -0.161567000     2.189477000
C       1.761985000     0.014996000     3.013306000
Au      0.099168000    -0.032607000    -0.070877000
Cl      0.061590000     0.112658000    -2.347325000
H      -0.679059000     0.765894000     2.866313000
H      -0.375073000    -1.361311000     2.715229000
H       1.663026000    -0.082404000     4.092072000
H       2.178013000     0.989410000     2.766205000
H       2.424352000    -0.756771000     2.628004000
Br      1.869382000    -2.404509000     0.061373000
Br      3.323036000    -4.229621000     0.495224000