11
energy: -33579233265712.531250 kJ/mol; low freq (cm^-1) (cm^-1) (cm^-1): 11.27, 21.36, 36.03
P       0.102000000     0.038089000     2.265425000
C       1.720515000     0.001898000     3.122153000
Au      0.134689000    -0.029527000    -0.000079000
Br      0.242085000    -0.110982000    -2.405331000
H      -0.543371000     1.151193000     2.839125000
H      -0.624101000    -0.989845000     2.898551000
H       1.590754000     0.017323000     4.201922000
H       2.303343000     0.862659000     2.802630000
H       2.254037000    -0.897041000     2.822002000
Cl      3.148002000     0.094128000    -0.158265000
Cl      5.129934000     0.178197000     0.417388000