11
energy: -33579247987344.472656 kJ/mol; low freq (cm^-1) (cm^-1) (cm^-1): 11.45, 15.29, 52.98
P       0.099977000    -0.048396000     4.550008000
C       1.776692000     0.039072000     5.286057000
Au      0.002878000     0.145810000     2.307248000
Br      0.071122000     0.346662000    -0.111978000
H      -0.634766000     0.893567000     5.296170000
H      -0.434402000    -1.232271000     5.094710000
H       1.740329000    -0.074785000     6.367106000
H       2.219211000     0.999124000     5.028914000
H       2.389106000    -0.747015000     4.849420000
Cl      2.993206000    -0.081477000     0.562228000
Cl      4.989578000    -0.390596000     1.053534000