11
energy: -4325848.844000 kJ/mol; low freq (cm^-1): 23.68, 26.28, 47.71
P      -0.022356000     0.075661000     2.354634000
C       1.646219000    -0.260023000     3.032268000
Au     -0.124302000    -0.112595000     0.096348000
I       0.173477000    -0.519232000    -2.461008000
H      -0.380089000     1.310841000     2.928928000
H      -0.867156000    -0.773584000     3.095294000
H       1.655190000    -0.205796000     4.118414000
H       2.336894000     0.471956000     2.618578000
H       1.964718000    -1.246941000     2.701332000
Br      2.442726000    -1.971944000    -0.747295000
Br      4.048141000    -3.082441000     0.666130000