11
energy: -4985099.001000 kJ/mol; low freq (cm^-1): 13.48, 36.73, 43.39
P       0.133366000    -0.011395000     2.218114000
C       1.745287000     0.010313000     3.086920000
Au      0.137933000     0.001084000    -0.040014000
Cl      0.141280000     0.013887000    -2.323934000
H      -0.574145000     1.046330000     2.822141000
H      -0.539435000    -1.097556000     2.811140000
H       1.602441000     0.004319000     4.165203000
H       2.292502000     0.900820000     2.786867000
H       2.320107000    -0.860353000     2.780497000
Cl      3.123770000    -0.002068000    -0.149077000
Cl      5.149320000    -0.015058000     0.251145000