11
energy: -25435725657342.007812 kJ/mol; low freq (cm^-1) (cm^-1) (cm^-1): 18.83, 27.61, 39.19
P      -0.005207000     0.088014000     2.339116000
C       1.654660000    -0.320410000     2.997599000
Au     -0.147376000    -0.045856000     0.075276000
I       0.026482000    -0.380838000    -2.504017000
H      -0.317180000     1.319432000     2.947151000
H      -0.871913000    -0.749703000     3.067316000
H       1.675326000    -0.266059000     4.083638000
H       2.374724000     0.378168000     2.576757000
H       1.924929000    -1.320884000     2.665471000
I       2.470468000    -2.000525000    -0.712244000
I       4.363090000    -3.289976000     0.867560000