11
energy: -4757596.048000 kJ/mol; low freq (cm^-1): 5.09, 12.78, 49.06
P       0.128751000    -0.064128000     4.442287000
C       1.778576000     0.095560000     5.222407000
Au      0.071343000     0.070519000     2.203477000
Cl      0.120575000     0.206884000    -0.102102000
H      -0.656412000     0.874290000     5.139503000
H      -0.385724000    -1.250248000     5.000184000
H       1.711564000     0.007403000     6.304457000
H       2.198147000     1.062916000     4.954522000
H       2.428823000    -0.681190000     4.825651000
Br      3.034290000    -0.047113000     0.332383000
Br      5.361653000    -0.284569000     0.676649000