11
energy: -27627590088109.335938 kJ/mol; low freq (cm^-1) (cm^-1) (cm^-1): 14.35, 21.04, 34.1
P       0.120773000    -0.034597000     4.529246000
C       1.883437000     0.070996000     5.015964000
Au     -0.217496000     0.037396000     2.299840000
Br     -0.298416000     0.130612000    -0.134168000
H      -0.501455000     0.963286000     5.304019000
H      -0.348217000    -1.175479000     5.208686000
H       2.000700000     0.033605000     6.096610000
H       2.295537000     0.999634000     4.626888000
H       2.421127000    -0.752914000     4.551391000
I       2.858961000     0.013989000     0.956889000
I       5.450770000    -0.033921000     1.903152000