11
energy: -28411857069500.699219 kJ/mol; low freq (cm^-1) (cm^-1) (cm^-1): 3.36, 27.49, 30.56
P       0.032234000    -0.011364000     2.230973000
C       1.684460000    -0.204869000     2.993775000
Au     -0.051004000     0.005398000    -0.028977000
Cl     -0.094391000    -0.044173000    -2.313010000
H      -0.508929000     1.105948000     2.896817000
H      -0.729792000    -1.033305000     2.826873000
H       1.611784000    -0.246314000     4.078127000
H       2.308359000     0.635295000     2.696000000
H       2.129040000    -1.121709000     2.612537000
I       1.444731000    -2.786978000    -0.142816000
I       2.750530000    -5.102279000     0.558701000