11
energy: -28411875785081.828125 kJ/mol; low freq (cm^-1) (cm^-1) (cm^-1): 14.9, 18.58, 34.29
P       0.155459000    -0.003519000     4.412420000
C       1.916745000     0.028493000     4.912895000
Au     -0.148181000    -0.013356000     2.188110000
Cl     -0.192141000    -0.023175000    -0.126403000
H      -0.419258000     1.060844000     5.133494000
H      -0.380020000    -1.085720000     5.137159000
H       2.024119000     0.028150000     5.995173000
H       2.380271000     0.917755000     4.490852000
H       2.413129000    -0.840951000     4.486857000
I       2.911801000    -0.035662000     0.749367000
I       5.517921000    -0.042534000     1.619494000