11
energy: -32011017541766.710938 kJ/mol; low freq (cm^-1) (cm^-1) (cm^-1): 6.92, 13.03, 45.85
P       0.090432000    -0.031312000     4.537982000
C       1.818412000     0.049237000     5.140883000
Au     -0.106267000     0.042683000     2.294967000
Br     -0.037331000     0.134316000    -0.140445000
H      -0.566805000     0.976983000     5.269155000
H      -0.439241000    -1.163981000     5.185829000
H       1.863471000     0.008956000     6.226818000
H       2.267189000     0.973451000     4.783022000
H       2.373637000    -0.782743000     4.712635000
Br      2.881584000     0.041459000     0.785727000
Br      5.132382000     0.003557000     1.561944000