11
energy: -4325849.064000 kJ/mol; low freq (cm^-1): 21.33, 31.57, 50.02
P       0.172559000    -0.112107000     4.662435000
C       1.923252000     0.174499000     5.120716000
Au     -0.203870000     0.127291000     2.437638000
I      -0.127299000     0.385180000    -0.156900000
H      -0.552768000     0.699977000     5.555636000
H      -0.120020000    -1.374787000     5.212683000
H       2.090680000     0.002240000     6.181382000
H       2.184184000     1.199346000     4.864838000
H       2.551883000    -0.486937000     4.527501000
Br      2.780956000    -0.009180000     1.053265000
Br      4.902378000    -0.332503000     2.156179000