11
energy: -32010993310013.718750 kJ/mol; low freq (cm^-1) (cm^-1) (cm^-1): 27.8, 31.65, 43.77
P       0.102798000    -0.194865000     2.214697000
C       1.690504000     0.162228000     3.052517000
Au      0.114872000    -0.005968000    -0.052514000
Br      0.189838000     0.215701000    -2.445423000
H      -0.825716000     0.605037000     2.910028000
H      -0.259594000    -1.463086000     2.703334000
H       1.612745000     0.009085000     4.126381000
H       1.970209000     1.192993000     2.844696000
H       2.448811000    -0.496597000     2.635268000
Br      2.005791000    -2.291225000     0.062936000
Br      3.498734000    -4.067812000     0.580235000