11
energy: -4985100.052000 kJ/mol; low freq (cm^-1): 9.79, 15.52, 56.17
P       0.121749000     0.031448000     4.438784000
C       1.773144000    -0.061890000     5.228836000
Au      0.080551000    -0.059008000     2.197564000
Cl      0.142372000    -0.150244000    -0.102432000
H      -0.453059000     1.176821000     5.022995000
H      -0.617131000    -0.959339000     5.114384000
H       1.695442000    -0.004750000     6.312255000
H       2.384390000     0.757751000     4.857171000
H       2.244591000    -0.998962000     4.940327000
Cl      3.064857000     0.042160000     0.334760000
Cl      5.095522000     0.216336000     0.654774000