31
energy: -41941380539209.078125 kJ/mol; low freq (cm^-1) (cm^-1) (cm^-1): 7.79, 21.94, 23.64
C      -1.613261000     0.086760000     3.027670000
P       0.057268000     0.034020000     2.280697000
C       0.889082000    -1.414604000     3.004604000
C       2.232731000    -1.629358000     2.683074000
C       2.905451000    -2.725124000     3.200414000
C       2.244249000    -3.622870000     4.034089000
C       0.907791000    -3.418610000     4.349443000
C       0.230238000    -2.316498000     3.838126000
C       0.908041000     1.476516000     2.998646000
C       0.992742000     2.659750000     2.265611000
C       1.602175000     3.778508000     2.818048000
C       2.134632000     3.719683000     4.100437000
C       2.056180000     2.540086000     4.833214000
C       1.445562000     1.420245000     4.285449000
Au      0.004554000    -0.001602000     0.000836000
Br     -0.112658000    -0.074651000    -2.411967000
H      -2.096341000     0.999170000     2.684323000
H      -1.554844000     0.099422000     4.114792000
H      -2.199640000    -0.765694000     2.690561000
H       2.746911000    -0.941575000     2.026617000
H       3.944775000    -2.882347000     2.947664000
H       2.769703000    -4.480072000     4.431821000
H       0.388177000    -4.114797000     4.993183000
H      -0.809273000    -2.172509000     4.093234000
H       0.600911000     2.697884000     1.258812000
H       1.672938000     4.689784000     2.240916000
H       2.618198000     4.588394000     4.525629000
H       2.476976000     2.489511000     5.827982000
H       1.401170000     0.500624000     4.852448000
Cl      2.798694000     0.825210000    -0.131531000
Cl      4.741103000     1.469501000     0.243261000