31
energy: -39749559476319.289062 kJ/mol; low freq (cm^-1) (cm^-1) (cm^-1): 8.01, 19.05, 27.45
C      -1.843480000    -0.071321000     5.855784000
P      -0.263718000    -0.056683000     4.933430000
C       0.735294000    -1.419384000     5.612357000
C       1.985710000    -1.656490000     5.035069000
C       2.798367000    -2.668958000     5.520221000
C       2.366698000    -3.463406000     6.578892000
C       1.121437000    -3.238840000     7.150031000
C       0.306635000    -2.218069000     6.670638000
C       0.573897000     1.463932000     5.488081000
C       0.665556000     2.558178000     4.628564000
C       1.271819000     3.732483000     5.059887000
C       1.789849000     3.814815000     6.346016000
C       1.705529000     2.722062000     7.205133000
C       1.101190000     1.548427000     6.779106000
Au     -0.501795000    -0.116824000     2.666931000
I      -0.689890000     0.067746000     0.071184000
H      -2.432402000     0.774800000     5.508179000
H      -1.672957000     0.029693000     6.926341000
H      -2.389004000    -0.989270000     5.645881000
H       2.317493000    -1.049160000     4.203272000
H       3.764753000    -2.844315000     5.068430000
H       2.998461000    -4.257491000     6.952101000
H       0.779887000    -3.856403000     7.969230000
H      -0.659036000    -2.056000000     7.126540000
H       0.277543000     2.495066000     3.621573000
H       1.341261000     4.569573000     4.380327000
H       2.266615000     4.726507000     6.679217000
H       2.116474000     2.783070000     8.203556000
H       1.053888000     0.696132000     7.443773000
Cl      0.076563000     2.880419000     0.802840000
Cl      0.620245000     4.861734000     1.398642000