31
energy: -35989768195383.085938 kJ/mol; low freq (cm^-1) (cm^-1) (cm^-1): 4.82, 20.43, 24.86
C      -1.780862000     0.246613000     5.751099000
P      -0.255737000    -0.035514000     4.778964000
C       0.487329000    -1.568947000     5.417923000
C       1.582060000    -2.099865000     4.729937000
C       2.191313000    -3.262427000     5.177128000
C       1.709916000    -3.908201000     6.312118000
C       0.619388000    -3.387837000     6.997962000
C       0.007494000    -2.220333000     6.554029000
C       0.862655000     1.304409000     5.311378000
C       1.015896000     2.434771000     4.508706000
C       1.826400000     3.482933000     4.927681000
C       2.492791000     3.403504000     6.144722000
C       2.349917000     2.273351000     6.943915000
C       1.538442000     1.225605000     6.530468000
Au     -0.571071000    -0.103146000     2.536105000
Br     -0.795026000    -0.259725000     0.097871000
H      -2.220056000     1.182744000     5.412577000
H      -1.559840000     0.322131000     6.814441000
H      -2.487803000    -0.560893000     5.569495000
H       1.946205000    -1.616747000     3.833859000
H       3.026949000    -3.668621000     4.625000000
H       2.179805000    -4.819976000     6.655042000
H       0.239248000    -3.890586000     7.876826000
H      -0.842888000    -1.831778000     7.095432000
H       0.510770000     2.486568000     3.553409000
H       1.944231000     4.354888000     4.299128000
H       3.129841000     4.216168000     6.466491000
H       2.876353000     2.205249000     7.886071000
H       1.443872000     0.341812000     7.146804000
I       1.677931000    -2.165762000     0.708695000
I       3.811904000    -3.814127000     1.358175000