31
energy: -4903041.023000 kJ/mol; low freq (cm^-1): 5.24, 19.03, 24.79
C      -1.723284000     0.087239000     5.683004000
P      -0.101506000     0.052092000     4.835187000
C       0.758515000    -1.437397000     5.426688000
C       1.967451000    -1.774565000     4.809939000
C       2.664148000    -2.903344000     5.210410000
C       2.157343000    -3.710786000     6.224761000
C       0.954906000    -3.384540000     6.837861000
C       0.253863000    -2.249296000     6.441521000
C       0.808464000     1.459857000     5.555286000
C       0.909856000     2.653418000     4.841113000
C       1.560635000     3.746939000     5.399687000
C       2.119308000     3.650501000     6.668511000
C       2.028115000     2.458362000     7.380488000
C       1.375686000     1.365081000     6.827458000
Au     -0.224252000     0.083324000     2.558931000
I      -0.253510000    -0.086607000    -0.049086000
H      -2.237646000     0.996164000     5.377696000
H      -1.600080000     0.094233000     6.764803000
H      -2.315432000    -0.773428000     5.377398000
H       2.348293000    -1.166322000     4.000339000
H       3.586678000    -3.168734000     4.713546000
H       2.692162000    -4.602677000     6.521671000
H       0.553159000    -4.015846000     7.619224000
H      -0.684710000    -2.013634000     6.923007000
H       0.489968000     2.719507000     3.846221000
H       1.638793000     4.668673000     4.839884000
H       2.632390000     4.499348000     7.099541000
H       2.471001000     2.378604000     8.363769000
H       1.321201000     0.435121000     7.377085000
I       0.811035000    -3.005320000     1.279821000
I       1.674299000    -5.413501000     2.377128000