31
energy: -42725702585751.515625 kJ/mol; low freq (cm^-1) (cm^-1) (cm^-1): 8.27, 19.2, 28.28
C      -1.751625000     0.070654000     5.416298000
P      -0.127908000    -0.070472000     4.581786000
C       0.661691000    -1.566836000     5.256077000
C       1.707409000    -2.140643000     4.528637000
C       2.357300000    -3.268254000     5.008968000
C       1.965350000    -3.836724000     6.216184000
C       0.921033000    -3.275446000     6.941446000
C       0.269958000    -2.143828000     6.464802000
C       0.827896000     1.336344000     5.246618000
C       0.938141000     2.502832000     4.489575000
C       1.618230000     3.602641000     4.997568000
C       2.199386000     3.540251000     6.258389000
C       2.100658000     2.375488000     7.012420000
C       1.417669000     1.276067000     6.510125000
Au     -0.212815000    -0.121822000     2.328314000
Cl     -0.155250000    -0.295957000     0.017033000
H      -2.240899000     0.967456000     5.042205000
H      -1.635673000     0.155771000     6.495128000
H      -2.363069000    -0.795665000     5.171213000
H       2.000709000    -1.717596000     3.578051000
H       3.156513000    -3.706717000     4.428721000
H       2.466362000    -4.720649000     6.586234000
H       0.608378000    -3.719662000     7.876436000
H      -0.543803000    -1.723589000     7.037937000
H       0.503233000     2.542754000     3.499902000
H       1.702235000     4.502176000     4.403752000
H       2.736144000     4.393498000     6.649691000
H       2.561519000     2.320595000     7.989089000
H       1.358873000     0.368570000     7.094764000
Cl      1.997126000    -2.149625000     0.656081000
Cl      3.512627000    -3.452518000     1.208588000