31
energy: -5221016.019000 kJ/mol; low freq (cm^-1): 2.4, 21.44, 25.43
C      -1.856412000     0.348912000     3.658713000
P      -0.432656000    -0.063860000     2.587722000
C       0.308585000    -1.575884000     3.277752000
C       1.503067000    -2.029582000     2.710790000
C       2.096590000    -3.192901000     3.173115000
C       1.502374000    -3.916248000     4.203634000
C       0.315023000    -3.470876000     4.769526000
C      -0.283667000    -2.302551000     4.308793000
C       0.790653000     1.243955000     2.926692000
C       1.097899000     2.187180000     1.947842000
C       2.015328000     3.196284000     2.216764000
C       2.630434000     3.263881000     3.460254000
C       2.331489000     2.319647000     4.438485000
C       1.416698000     1.311299000     4.173602000
Au     -0.900843000    -0.293266000     0.383476000
Br     -1.205641000    -0.637504000    -2.029137000
H      -2.256371000     1.303040000     3.322356000
H      -1.550937000     0.433281000     4.700351000
H      -2.629397000    -0.409762000     3.554679000
H       1.963064000    -1.482248000     1.900093000
H       3.013881000    -3.536649000     2.716430000
H       1.962539000    -4.827702000     4.559553000
H      -0.150423000    -4.031479000     5.568465000
H      -1.210167000    -1.972562000     4.755638000
H       0.628991000     2.122707000     0.975441000
H       2.253851000     3.921652000     1.451552000
H       3.348572000     4.045548000     3.666555000
H       2.817547000     2.365301000     5.403274000
H       1.203457000     0.566806000     4.929054000
I       1.698108000    -1.796435000    -1.282981000
I       4.169397000    -2.763204000    -0.483434000