31
energy: -33797889540545.515625 kJ/mol; low freq (cm^-1) (cm^-1) (cm^-1): 1.41, 13.8, 23.79
C      -1.786228000     0.244679000     3.236774000
P      -0.167729000     0.062707000     2.403314000
C       0.615297000    -1.416328000     3.113154000
C       1.820608000    -1.844326000     2.549439000
C       2.459245000    -2.970718000     3.041045000
C       1.897383000    -3.686236000     4.093990000
C       0.698175000    -3.269426000     4.654670000
C       0.056105000    -2.135418000     4.167523000
C       0.811678000     1.472922000     3.017961000
C       0.976158000     2.600786000     2.214634000
C       1.681892000     3.698768000     2.691393000
C       2.232146000     3.671541000     3.967156000
C       2.077775000     2.544392000     4.768358000
C       1.370492000     1.447160000     4.297104000
Au     -0.286543000    -0.072902000     0.131043000
I      -0.322560000    -0.427255000    -2.458684000
H      -2.251313000     1.154131000     2.862546000
H      -1.664923000     0.324767000     4.315698000
H      -2.422656000    -0.603283000     2.991403000
H       2.243750000    -1.308769000     1.710881000
H       3.379213000    -3.307031000     2.586006000
H       2.386549000    -4.577072000     4.462258000
H       0.254080000    -3.828848000     5.466373000
H      -0.880531000    -1.829473000     4.609995000
H       0.562171000     2.611688000     1.215207000
H       1.809084000     4.569083000     2.062744000
H       2.787922000     4.523185000     4.334660000
H       2.513954000     2.517934000     5.757441000
H       1.266730000     0.566389000     4.916040000
I       0.768901000    -3.243251000    -0.957230000
I       1.664046000    -5.573280000     0.275922000