31
energy: -6198193.543000 kJ/mol; low freq (cm^-1): 15.55, 22.06, 30.58
C      -1.512663000    -0.195879000     2.923879000
P       0.180377000    -0.134345000     2.236636000
C       1.087001000    -1.515896000     2.996778000
C       2.481935000    -1.515351000     2.920828000
C       3.208127000    -2.581788000     3.427671000
C       2.548401000    -3.662254000     4.006326000
C       1.161684000    -3.670529000     4.076533000
C       0.430179000    -2.600956000     3.573317000
C       0.913043000     1.365541000     2.967620000
C       1.162714000     2.480144000     2.168773000
C       1.683987000     3.639478000     2.731876000
C       1.960525000     3.688087000     4.092140000
C       1.717157000     2.575806000     4.893187000
C       1.196289000     1.417979000     4.334607000
Au      0.244145000    -0.172930000    -0.035042000
Cl      0.344078000    -0.165614000    -2.326021000
H      -2.035159000     0.700646000     2.596831000
H      -1.486062000    -0.224978000     4.011834000
H      -2.034623000    -1.066538000     2.534768000
H       2.998015000    -0.681871000     2.463402000
H       4.287468000    -2.574282000     3.365708000
H       3.115337000    -4.496908000     4.394837000
H       0.643821000    -4.512130000     4.514796000
H      -0.647932000    -2.631409000     3.619048000
H       0.955501000     2.437582000     1.107909000
H       1.877850000     4.499254000     2.105885000
H       2.370238000     4.588398000     4.529022000
H       1.937947000     2.610344000     5.951108000
H       1.023728000     0.550815000     4.957702000
Cl     -0.972736000    -2.742703000     0.323975000
Cl     -1.802377000    -4.565740000     0.915210000