31
energy: -38181335245309.921875 kJ/mol; low freq (cm^-1) (cm^-1) (cm^-1): 12.05, 17.51, 22.62
C      -1.740370000     0.093586000     3.290903000
P      -0.137894000     0.080912000     2.411370000
C       0.802107000    -1.332803000     3.068853000
C       2.156859000    -1.418948000     2.733188000
C       2.915293000    -2.488661000     3.181097000
C       2.330406000    -3.483544000     3.960198000
C       0.984334000    -3.403408000     4.291424000
C       0.218731000    -2.330058000     3.847027000
C       0.769594000     1.533378000     3.032801000
C       1.192681000     2.528997000     2.155229000
C       1.919393000     3.613850000     2.631636000
C       2.220817000     3.709689000     3.983012000
C       1.800829000     2.716222000     4.864129000
C       1.082847000     1.628733000     4.391365000
Au     -0.186805000     0.030860000     0.135685000
I       0.300089000     0.065881000    -2.440881000
H      -2.273237000     0.994408000     2.994145000
H      -1.596926000     0.096590000     4.370145000
H      -2.329077000    -0.772469000     2.995747000
H       2.618883000    -0.652577000     2.125145000
H       3.962170000    -2.546243000     2.917659000
H       2.923460000    -4.319199000     4.305345000
H       0.526016000    -4.174398000     4.895360000
H      -0.827862000    -2.281888000     4.111190000
H       0.977258000     2.443594000     1.099806000
H       2.260549000     4.372223000     1.941419000
H       2.792151000     4.550609000     4.351401000
H       2.044150000     2.784316000     5.915472000
H       0.785807000     0.844668000     5.075290000
Br      2.903263000     0.704805000    -0.809867000
Br      4.754894000     1.180432000     0.673525000