31
energy: -5538946.209000 kJ/mol; low freq (cm^-1): 5.3, 20.14, 24.91
C      -1.795894000     0.192728000     5.876050000
P      -0.239887000    -0.033116000     4.939372000
C       0.549841000    -1.533064000     5.598258000
C       1.607594000    -2.086357000     4.871741000
C       2.259755000    -3.217091000     5.340237000
C       1.857235000    -3.808405000     6.533386000
C       0.801731000    -3.266672000     7.257049000
C       0.147990000    -2.130927000     6.793084000
C       0.811238000     1.356138000     5.481397000
C       0.909278000     2.494629000     4.681644000
C       1.669727000     3.578454000     5.102327000
C       2.341918000     3.526878000     6.317564000
C       2.254746000     2.389197000     7.113375000
C       1.492753000     1.305601000     6.698419000
Au     -0.481245000    -0.139675000     2.674811000
I      -0.514125000    -0.413492000     0.073005000
H      -2.272808000     1.101022000     5.514037000
H      -1.600673000     0.296190000     6.941934000
H      -2.458162000    -0.651723000     5.695241000
H       1.912659000    -1.647337000     3.931969000
H       3.068440000    -3.636904000     4.759415000
H       2.360311000    -4.695089000     6.893964000
H       0.482449000    -3.728309000     8.181319000
H      -0.673388000    -1.724355000     7.365059000
H       0.402559000     2.524892000     3.726321000
H       1.745399000     4.456130000     4.475651000
H       2.941172000     4.367129000     6.640175000
H       2.786685000     2.342594000     8.053614000
H       1.443088000     0.416788000     7.312101000
Br      2.014859000    -1.937698000     0.942915000
Br      3.982425000    -3.112885000     1.745793000