31
energy: -5970692.724000 kJ/mol; low freq (cm^-1): 6.47, 21.31, 25.02
C      -1.790164000     0.116664000     5.542439000
P      -0.212392000    -0.071966000     4.634384000
C       0.577277000    -1.577808000     5.285291000
C       1.623640000    -2.138649000     4.548293000
C       2.274001000    -3.273260000     5.010202000
C       1.882178000    -3.861042000     6.208512000
C       0.837969000    -3.312200000     6.942966000
C       0.185740000    -2.173366000     6.484634000
C       0.809267000     1.316678000     5.233983000
C       0.955045000     2.455060000     4.441626000
C       1.690369000     3.538562000     4.906429000
C       2.289092000     3.487320000     6.159340000
C       2.153968000     2.349866000     6.949019000
C       1.417497000     1.266810000     6.489464000
Au     -0.413433000    -0.144356000     2.388680000
Cl     -0.483870000    -0.341259000     0.070388000
H      -2.273275000     1.022911000     5.183471000
H      -1.619911000     0.207296000     6.613597000
H      -2.435116000    -0.735017000     5.334911000
H       1.917425000    -1.701532000     3.604206000
H       3.072065000    -3.702280000     4.421440000
H       2.383779000    -4.750563000     6.564061000
H       0.525730000    -3.771345000     7.870856000
H      -0.628235000    -1.762927000     7.064419000
H       0.503489000     2.485968000     3.459170000
H       1.802512000     4.416453000     4.285521000
H       2.867699000     4.327782000     6.517230000
H       2.628120000     2.303617000     7.919729000
H       1.330849000     0.378747000     7.100226000
Br      1.718384000    -2.164049000     0.602593000
Br      3.498920000    -3.637231000     1.154949000