31
energy: -5766443.971000 kJ/mol; low freq (cm^-1): 6.15, 26.23, 29.74
C      -1.737716000     0.083710000     3.179809000
P      -0.093667000     0.150967000     2.380733000
C       0.853885000    -1.267889000     3.018399000
C       2.153011000    -1.439351000     2.530382000
C       2.931840000    -2.493534000     2.980907000
C       2.419238000    -3.390738000     3.914558000
C       1.126584000    -3.228406000     4.396717000
C       0.342797000    -2.168110000     3.951565000
C       0.727975000     1.604878000     3.116719000
C       1.137407000     2.665251000     2.309113000
C       1.771519000     3.767926000     2.872433000
C       1.998772000     3.813145000     4.242182000
C       1.597240000     2.752478000     5.051884000
C       0.967833000     1.649801000     4.492757000
Au     -0.064528000     0.194944000     0.103647000
I       0.383108000     0.221263000    -2.469815000
H      -2.296897000     0.961409000     2.862140000
H      -1.651571000     0.088634000     4.265188000
H      -2.267865000    -0.808715000     2.852037000
H       2.554669000    -0.756734000     1.793798000
H       3.933773000    -2.615540000     2.593246000
H       3.024940000    -4.217369000     4.260492000
H       0.723731000    -3.926363000     5.118301000
H      -0.661813000    -2.056749000     4.334060000
H       0.971206000     2.621153000     1.240924000
H       2.093057000     4.584421000     2.239210000
H       2.495912000     4.669216000     4.679027000
H       1.783352000     2.781548000     6.117103000
H       0.681004000     0.817451000     5.123688000
Cl      3.083446000    -0.074137000    -1.062205000
Cl      4.899192000    -0.302044000     0.033753000