31
energy: -5334792.033000 kJ/mol; low freq (cm^-1): 3.11, 20.16, 22.05
C      -1.656604000     0.043216000     5.336534000
P      -0.012416000     0.178671000     4.546584000
C       0.954837000    -1.252403000     5.120546000
C       2.232855000    -1.429402000     4.583157000
C       3.016826000    -2.499762000     4.984050000
C       2.530114000    -3.406683000     5.920990000
C       1.259265000    -3.238481000     6.455538000
C       0.470923000    -2.163605000     6.057970000
C       0.754326000     1.622453000     5.355123000
C       0.842103000     2.834555000     4.671695000
C       1.389981000     3.948385000     5.296415000
C       1.857770000     3.854497000     6.601274000
C       1.779602000     2.644314000     7.283857000
C       1.231108000     1.530491000     6.664154000
Au     -0.039484000     0.330480000     2.295459000
Cl      0.092941000     0.436573000    -0.030015000
H      -2.233588000     0.919943000     5.050412000
H      -1.568876000     0.012807000     6.421193000
H      -2.167180000    -0.847318000     4.975177000
H       2.608412000    -0.741571000     3.838611000
H       3.997829000    -2.629901000     4.549665000
H       3.138603000    -4.246429000     6.227195000
H       0.876083000    -3.944235000     7.179637000
H      -0.517152000    -2.049899000     6.479381000
H       0.493230000     2.900113000     3.649954000
H       1.459325000     4.884178000     4.759573000
H       2.291030000     4.719599000     7.084103000
H       2.153065000     2.567040000     8.295619000
H       1.189962000     0.587166000     7.191757000
I       2.869538000    -0.738891000     0.671154000
I       5.295186000    -1.778039000     1.475272000