31
energy: -5856917.969000 kJ/mol; low freq (cm^-1): 4.34, 18.44, 27.2
C      -1.552081000     0.089605000     5.299405000
P       0.136051000    -0.078649000     4.616005000
C       0.874553000    -1.528469000     5.434607000
C       2.164912000    -1.902461000     5.049895000
C       2.787319000    -2.984293000     5.652382000
C       2.124203000    -3.711198000     6.637389000
C       0.838616000    -3.350078000     7.016936000
C       0.213797000    -2.260079000     6.419205000
C       1.047608000     1.348806000     5.288900000
C       1.422523000     2.396577000     4.448966000
C       2.092624000     3.498759000     4.967743000
C       2.390010000     3.555814000     6.323110000
C       2.021876000     2.508873000     7.164352000
C       1.355047000     1.406546000     6.650765000
Au      0.213440000    -0.168625000     2.353880000
Br      0.381893000    -0.121430000    -0.091655000
H      -1.991660000     0.986868000     4.869075000
H      -1.528184000     0.189301000     6.383219000
H      -2.156036000    -0.769263000     5.013266000
H       2.677602000    -1.346494000     4.276033000
H       3.786201000    -3.265726000     5.349465000
H       2.608240000    -4.558824000     7.102393000
H       0.317968000    -3.914601000     7.778086000
H      -0.786567000    -1.992380000     6.726161000
H       1.206633000     2.350225000     3.390853000
H       2.387358000     4.297828000     4.302737000
H       2.916010000     4.410760000     6.725471000
H       2.261604000     2.548872000     8.218077000
H       1.089313000     0.586681000     7.304757000
Br      1.775195000     2.413626000     0.518902000
Br      2.895849000     4.449567000     1.111200000