31
energy: -5856915.518000 kJ/mol; low freq (cm^-1): 3.6, 13.84, 24.69
C      -1.720716000     0.028257000     3.237488000
P      -0.105383000     0.055086000     2.383495000
C       0.838591000    -1.369861000     3.013287000
C       2.172362000    -1.485688000     2.609185000
C       2.941634000    -2.549714000     3.051952000
C       2.387194000    -3.511042000     3.893232000
C       1.061381000    -3.403108000     4.290636000
C       0.285976000    -2.333719000     3.852944000
C       0.781554000     1.492333000     3.070646000
C       1.281957000     2.481443000     2.226664000
C       1.991501000     3.553764000     2.755397000
C       2.198626000     3.643530000     4.125146000
C       1.702716000     2.655580000     4.972158000
C       1.002096000     1.580422000     4.447607000
Au     -0.150143000     0.077142000     0.121992000
Br      0.175957000     0.159288000    -2.311044000
H      -2.262785000     0.925249000     2.945922000
H      -1.598893000     0.016162000     4.319098000
H      -2.289300000    -0.842434000     2.917390000
H       2.607227000    -0.746911000     1.948667000
H       3.972321000    -2.630692000     2.736059000
H       2.987906000    -4.342967000     4.234081000
H       0.626278000    -4.149329000     4.941068000
H      -0.744586000    -2.263575000     4.169626000
H       1.133802000     2.402901000     1.159080000
H       2.388508000     4.309839000     2.092942000
H       2.753325000     4.476288000     4.535201000
H       1.871868000     2.719197000     6.038252000
H       0.644971000     0.801438000     5.108197000
Br      2.857021000     0.710382000    -0.997729000
Br      4.865205000     1.155202000     0.219463000