31
energy: -6084418.725000 kJ/mol; low freq (cm^-1): 8.13, 19.88, 32.29
C      -1.815776000    -0.119243000     5.684258000
P      -0.240883000    -0.081605000     4.753905000
C       0.763405000    -1.457225000     5.399297000
C       1.980119000    -1.725563000     4.766657000
C       2.798373000    -2.744524000     5.228906000
C       2.405250000    -3.514526000     6.319910000
C       1.192812000    -3.259322000     6.946424000
C       0.373384000    -2.231884000     6.490162000
C       0.593709000     1.429541000     5.342430000
C       0.656542000     2.550900000     4.515389000
C       1.258103000     3.718441000     4.970142000
C       1.801301000     3.768241000     6.247677000
C       1.746090000     2.649003000     7.073976000
C       1.145888000     1.481746000     6.624317000
Au     -0.489673000    -0.088312000     2.503058000
Br     -0.696010000     0.096329000     0.075617000
H      -2.413639000     0.725725000     5.349397000
H      -1.642132000    -0.028961000     6.755169000
H      -2.353754000    -1.039709000     5.465815000
H       2.279956000    -1.138768000     3.908476000
H       3.738175000    -2.944553000     4.733399000
H       3.040595000    -4.314082000     6.674963000
H       0.880474000    -3.858596000     7.790496000
H      -0.566631000    -2.046671000     6.988857000
H       0.249307000     2.511970000     3.514901000
H       1.305467000     4.577373000     4.316130000
H       2.274984000     4.674671000     6.599073000
H       2.176748000     2.684241000     8.065286000
H       1.121695000     0.609518000     7.263796000
Cl      0.011149000     2.877373000     0.704097000
Cl      0.515616000     4.845404000     1.229603000