31
energy: -5334789.228000 kJ/mol; low freq (cm^-1): 10.63, 17.18, 21.53
C      -1.581809000    -0.106396000     3.030929000
P       0.085671000    -0.065958000     2.281054000
C       0.981550000    -1.482968000     2.986774000
C       2.377461000    -1.489419000     2.934065000
C       3.086200000    -2.595098000     3.378707000
C       2.408449000    -3.707108000     3.870172000
C       1.020728000    -3.707565000     3.918423000
C       0.307054000    -2.599130000     3.478979000
C       0.883285000     1.405679000     2.997335000
C       1.188234000     2.496863000     2.185909000
C       1.765515000     3.635813000     2.736377000
C       2.042141000     3.686724000     4.096448000
C       1.743668000     2.597105000     4.910179000
C       1.167680000     1.459773000     4.364198000
Au      0.005663000    -0.140816000     0.011559000
Cl     -0.132259000    -0.332895000    -2.275347000
H      -2.098669000     0.807682000     2.746548000
H      -1.517999000    -0.169059000     4.115833000
H      -2.134380000    -0.956421000     2.636720000
H       2.908331000    -0.631733000     2.543339000
H       4.166510000    -2.592632000     3.335545000
H       2.962210000    -4.572082000     4.208087000
H       0.486919000    -4.573172000     4.284118000
H      -0.771621000    -2.625075000     3.505466000
H       0.978613000     2.450750000     1.125647000
H       2.001978000     4.478025000     2.101206000
H       2.494221000     4.571221000     4.523763000
H       1.964345000     2.633394000     5.968069000
H       0.952578000     0.609319000     4.997052000
I      -1.164863000    -3.050522000     0.065341000
I      -1.952166000    -5.372271000     1.318646000