31
energy: -5970690.438000 kJ/mol; low freq (cm^-1): 13.02, 20.8, 24.71
C      -1.540875000    -0.163995000     2.947605000
P       0.149868000    -0.118152000     2.255068000
C       1.046847000    -1.510126000     3.004409000
C       2.440261000    -1.529309000     2.910298000
C       3.156692000    -2.610859000     3.398951000
C       2.488010000    -3.685664000     3.978109000
C       1.102485000    -3.673331000     4.067886000
C       0.381182000    -2.589132000     3.582549000
C       0.902446000     1.375376000     2.977059000
C       1.142735000     2.491244000     2.176991000
C       1.678976000     3.646569000     2.734154000
C       1.980020000     3.689660000     4.089432000
C       1.746254000     2.576001000     4.891334000
C       1.210360000     1.422051000     4.338877000
Au      0.188211000    -0.165189000    -0.021565000
Cl      0.246621000    -0.187156000    -2.312969000
H      -2.057412000     0.736886000     2.623156000
H      -1.510293000    -0.194387000     4.035427000
H      -2.070272000    -1.030865000     2.559318000
H       2.962867000    -0.700950000     2.450889000
H       4.234982000    -2.619703000     3.321305000
H       3.047107000    -4.532499000     4.351292000
H       0.576755000    -4.510860000     4.504241000
H      -0.696502000    -2.605476000     3.640986000
H       0.917075000     2.453321000     1.119655000
H       1.865708000     4.507472000     2.107559000
H       2.401512000     4.586835000     4.521500000
H       1.986375000     2.606155000     5.945161000
H       1.045321000     0.553541000     4.962007000
Br     -0.958812000    -2.826788000     0.246591000
Br     -1.781614000    -4.941861000     0.973868000