38
energy: -5406361.540000 kJ/mol; low freq (cm^-1): 8.61, 18.73, 23.14
C       3.516192000    -2.459416000     3.868864000
C       3.077196000    -1.348919000     4.579002000
C       1.995129000    -0.610495000     4.118185000
C       1.343033000    -0.986586000     2.943818000
C       1.789917000    -2.100632000     2.231986000
C       2.871836000    -2.834328000     2.695438000
P      -0.078133000    -0.044942000     2.301811000
C      -1.564251000    -0.743418000     3.086364000
C      -1.503578000    -1.393515000     4.319104000
C      -2.665197000    -1.879983000     4.905046000
C      -3.890078000    -1.717753000     4.267155000
C      -3.953462000    -1.073165000     3.036640000
C      -2.793594000    -0.592413000     2.443777000
C       0.123921000     1.624526000     3.003745000
C      -0.752678000     2.147862000     3.950718000
C      -0.548220000     3.429572000     4.451640000
C       0.530119000     4.186539000     4.012637000
C       1.407284000     3.664366000     3.065458000
C       1.204402000     2.391315000     2.556652000
Au     -0.054602000    -0.008061000     0.020971000
I       0.440556000     0.078400000    -2.550503000
H       4.370487000    -3.021871000     4.219196000
H       3.585952000    -1.046198000     5.483647000
H       1.670874000     0.265617000     4.661182000
H       1.307158000    -2.375347000     1.304360000
H       3.224149000    -3.685434000     2.130037000
H      -0.553017000    -1.525922000     4.815515000
H      -2.612542000    -2.388337000     5.857905000
H      -4.792427000    -2.100182000     4.724146000
H      -4.903060000    -0.953598000     2.533884000
H      -2.836407000    -0.106773000     1.477951000
H      -1.591223000     1.561593000     4.297230000
H      -1.232529000     3.833054000     5.185243000
H       0.687206000     5.182397000     4.403685000
H       2.247380000     4.250321000     2.719637000
H       1.884148000     1.991118000     1.816254000
I       3.230403000     0.248605000    -0.577181000
I       5.293562000     0.370913000     1.280909000