38
energy: -43219050099793.070312 kJ/mol; low freq (cm^-1) (cm^-1) (cm^-1): 7.28, 20.26, 24.49
C       3.463838000    -2.292734000     3.819189000
C       3.125309000    -1.094717000     4.435931000
C       2.012965000    -0.378373000     4.008618000
C       1.236382000    -0.861154000     2.957017000
C       1.587009000    -2.059308000     2.330811000
C       2.692730000    -2.774847000     2.765747000
P      -0.250279000     0.014114000     2.370181000
C      -1.652261000    -0.815017000     3.187322000
C      -1.478210000    -1.646520000     4.292453000
C      -2.582696000    -2.226096000     4.906454000
C      -3.861121000    -1.976603000     4.422748000
C      -4.037438000    -1.149501000     3.317560000
C      -2.937708000    -0.574745000     2.697524000
C      -0.179304000     1.680398000     3.099897000
C      -0.690290000     1.942131000     4.372062000
C      -0.590644000     3.219152000     4.908850000
C       0.014746000     4.237453000     4.179881000
C       0.519253000     3.981306000     2.909760000
C       0.421018000     2.706916000     2.368024000
Au     -0.392349000     0.106784000     0.096315000
I      -0.437670000     0.479925000    -2.485548000
H       4.331532000    -2.846051000     4.151090000
H       3.728363000    -0.712888000     5.248138000
H       1.756516000     0.555412000     4.487352000
H       0.998762000    -2.423427000     1.498922000
H       2.959568000    -3.701154000     2.276256000
H      -0.485527000    -1.845443000     4.669844000
H      -2.442159000    -2.873461000     5.761086000
H      -4.718518000    -2.430308000     4.900506000
H      -5.030149000    -0.959769000     2.933656000
H      -3.072793000     0.056207000     1.828991000
H      -1.170960000     1.156178000     4.937063000
H      -0.991339000     3.419711000     5.893040000
H       0.083681000     5.232480000     4.597850000
H       0.975303000     4.768336000     2.326765000
H       0.795639000     2.519359000     1.371362000
Cl      0.722427000     3.078120000    -1.487869000
Cl      1.534693000     4.895630000    -0.712740000