38
energy: -6474010.218000 kJ/mol; low freq (cm^-1): 6.35, 22.74, 24.78
C       3.548737000    -2.423691000     6.555013000
C       3.111596000    -1.220914000     7.096291000
C       2.073391000    -0.520271000     6.493213000
C       1.469991000    -1.022975000     5.341446000
C       1.918707000    -2.226832000     4.794650000
C       2.950647000    -2.926146000     5.403471000
P       0.071327000    -0.175223000     4.536390000
C      -1.426264000    -0.959584000     5.214908000
C      -1.414445000    -1.616330000     6.446000000
C      -2.584092000    -2.177029000     6.943372000
C      -3.765803000    -2.087544000     6.215593000
C      -3.779405000    -1.439001000     4.985575000
C      -2.613133000    -0.878112000     4.483954000
C       0.093533000     1.521535000     5.201596000
C      -0.696963000     1.899480000     6.285586000
C      -0.620340000     3.195581000     6.782525000
C       0.244433000     4.115709000     6.202867000
C       1.031119000     3.742571000     5.117398000
C       0.952503000     2.452429000     4.613652000
Au      0.106882000    -0.260499000     2.281752000
Cl     -0.024414000    -0.385471000    -0.039381000
H       4.358409000    -2.965624000     7.024034000
H       3.579125000    -0.824281000     7.986978000
H       1.739697000     0.416707000     6.915241000
H       1.464014000    -2.608962000     3.890384000
H       3.294110000    -3.857227000     4.974581000
H      -0.495937000    -1.698374000     7.009395000
H      -2.569953000    -2.689513000     7.895495000
H      -4.672638000    -2.532329000     6.601955000
H      -4.687430000    -1.381313000     4.402550000
H      -2.623793000    -0.395772000     3.516696000
H      -1.374312000     1.188837000     6.736360000
H      -1.239600000     3.485285000     7.620220000
H       0.299956000     5.124076000     6.589337000
H       1.697258000     4.459043000     4.657241000
H       1.550477000     2.166640000     3.758545000
Br     -2.815692000    -0.895510000     0.540189000
Br     -5.083871000    -1.311162000     1.117470000