38
energy: -41650816591144.414062 kJ/mol; low freq (cm^-1) (cm^-1) (cm^-1): 13.72, 20.22, 20.8
C       3.433516000    -2.511110000     4.280041000
C       2.970305000    -1.363520000     4.914047000
C       1.972345000    -0.596459000     4.326567000
C       1.434993000    -0.975707000     3.096489000
C       1.910619000    -2.121373000     2.457379000
C       2.902795000    -2.889575000     3.051665000
P       0.090594000    -0.035147000     2.309965000
C      -1.460103000    -0.689442000     3.008077000
C      -1.482541000    -1.709820000     3.955314000
C      -2.698518000    -2.166297000     4.453958000
C      -3.888894000    -1.603960000     4.012102000
C      -3.867354000    -0.583654000     3.064576000
C      -2.659830000    -0.129702000     2.557874000
C       0.190884000     1.669081000     2.945495000
C      -0.438325000     2.038114000     4.134883000
C      -0.352426000     3.347493000     4.588697000
C       0.354968000     4.293985000     3.856976000
C       0.978722000     3.930858000     2.669100000
C       0.896085000     2.623753000     2.212110000
Au      0.031869000    -0.010714000     0.032872000
I      -0.393755000     0.517226000    -2.498940000
H       4.212437000    -3.104856000     4.738365000
H       3.387777000    -1.062875000     5.865085000
H       1.618996000     0.297766000     4.819519000
H       1.507974000    -2.402145000     1.493263000
H       3.267533000    -3.776064000     2.551734000
H      -0.558635000    -2.148030000     4.303764000
H      -2.711883000    -2.960448000     5.187710000
H      -4.832878000    -1.959958000     4.401348000
H      -4.791616000    -0.144078000     2.716379000
H      -2.648233000     0.659804000     1.818103000
H      -1.009654000     1.311158000     4.694263000
H      -0.850035000     3.630630000     5.505889000
H       0.406663000     5.316870000     4.203559000
H       1.512014000     4.669137000     2.087045000
H       1.355962000     2.348716000     1.272972000
Br     -1.845790000     2.582959000    -0.562753000
Br     -2.832319000     4.003833000     1.116615000