38
energy: -39459255272837.968750 kJ/mol; low freq (cm^-1) (cm^-1) (cm^-1): 3.25, 16.68, 24.37
C       3.366267000    -2.584783000     6.567160000
C       3.025280000    -1.367055000     7.143115000
C       2.040154000    -0.572802000     6.566397000
C       1.395323000    -0.996429000     5.405631000
C       1.747550000    -2.216606000     4.823452000
C       2.725383000    -3.009135000     5.406671000
P       0.064119000    -0.025561000     4.626062000
C      -1.487582000    -0.772340000     5.218967000
C      -1.521830000    -1.611697000     6.331956000
C      -2.729624000    -2.158782000     6.750088000
C      -3.901420000    -1.872963000     6.060082000
C      -3.869541000    -1.037288000     4.948538000
C      -2.667314000    -0.489830000     4.526731000
C       0.148960000     1.625830000     5.389664000
C      -0.596769000     1.946662000     6.523475000
C      -0.475913000     3.205222000     7.100651000
C       0.388657000     4.145079000     6.551716000
C       1.130784000     3.829048000     5.418056000
C       1.007839000     2.576021000     4.834259000
Au      0.164955000    -0.034276000     2.361838000
Br      0.117857000    -0.200662000    -0.084201000
H       4.133945000    -3.200057000     7.016455000
H       3.525740000    -1.031879000     8.041357000
H       1.779447000     0.374075000     7.017016000
H       1.258291000    -2.540470000     3.914142000
H       2.993093000    -3.952903000     4.951816000
H      -0.610823000    -1.847591000     6.863280000
H      -2.750914000    -2.816164000     7.608591000
H      -4.836870000    -2.313313000     6.376865000
H      -4.774529000    -0.833014000     4.394674000
H      -2.639702000     0.135623000     3.645379000
H      -1.273573000     1.219751000     6.949275000
H      -1.059950000     3.451303000     7.976814000
H       0.478558000     5.124850000     7.000656000
H       1.796595000     4.561507000     4.983034000
H       1.570183000     2.334271000     3.942134000
I      -2.254880000    -2.112713000     1.013598000
I      -4.280072000    -3.697972000     2.029339000