38
energy: -39459258284705.796875 kJ/mol; low freq (cm^-1) (cm^-1) (cm^-1): 7.42, 20.46, 21.61
C       3.351385000    -2.570375000     4.052247000
C       3.195880000    -1.272656000     4.521634000
C       2.190303000    -0.459525000     4.008664000
C       1.340377000    -0.946342000     3.018855000
C       1.503703000    -2.250390000     2.541865000
C       2.501950000    -3.058688000     3.062840000
P      -0.000121000     0.056724000     2.298590000
C      -1.533163000    -0.694754000     2.935464000
C      -1.537462000    -1.480731000     4.087548000
C      -2.725028000    -2.038897000     4.543616000
C      -3.909434000    -1.818683000     3.851741000
C      -3.908142000    -1.038618000     2.700533000
C      -2.724826000    -0.480398000     2.240748000
C       0.127397000     1.697891000     3.074247000
C      -0.480103000     1.975642000     4.298989000
C      -0.328239000     3.227647000     4.880962000
C       0.430015000     4.205267000     4.246241000
C       1.033297000     3.932850000     3.023216000
C       0.878292000     2.684896000     2.434802000
Au      0.044595000    -0.012066000     0.033182000
Br     -0.059029000    -0.454615000    -2.377335000
H       4.134136000    -3.200462000     4.451716000
H       3.855928000    -0.888899000     5.287335000
H       2.072317000     0.548681000     4.378197000
H       0.851601000    -2.629508000     1.765815000
H       2.621168000    -4.067327000     2.692550000
H      -0.615640000    -1.670369000     4.618423000
H      -2.720580000    -2.656200000     5.431318000
H      -4.829989000    -2.267349000     4.198645000
H      -4.824817000    -0.882106000     2.149706000
H      -2.719442000     0.102333000     1.329945000
H      -1.075100000     1.220220000     4.791892000
H      -0.805188000     3.440060000     5.827829000
H       0.543991000     5.180268000     4.699762000
H       1.615464000     4.694126000     2.522879000
H       1.330910000     2.475056000     1.474883000
I      -1.519973000    -2.867569000    -0.631522000
I      -2.731920000    -4.735869000     0.998503000