38
energy: -5406361.531000 kJ/mol; low freq (cm^-1): 11.52, 19.8, 21.99
C       3.416772000    -2.436694000     6.929486000
C       2.945706000    -1.254911000     7.490929000
C       1.957988000    -0.521446000     6.846142000
C       1.438954000    -0.968685000     5.630979000
C       1.922107000    -2.149083000     5.064968000
C       2.903844000    -2.883448000     5.716664000
P       0.109988000    -0.069789000     4.771683000
C      -1.452388000    -0.677461000     5.486469000
C      -1.489109000    -1.644642000     6.487781000
C      -2.712000000    -2.067433000     6.999029000
C      -3.895429000    -1.523975000     6.516679000
C      -3.859894000    -0.556890000     5.515330000
C      -2.645308000    -0.137646000     4.995882000
C       0.214409000     1.665945000     5.313906000
C      -0.441831000     2.109378000     6.462423000
C      -0.345026000     3.439867000     6.847965000
C       0.398840000     4.333607000     6.087343000
C       1.049355000     3.896667000     4.939066000
C       0.957338000     2.568039000     4.551285000
Au      0.107638000    -0.200627000     2.493822000
I      -0.156945000     0.042335000    -0.102312000
H       4.187887000    -3.004142000     7.432166000
H       3.349198000    -0.901526000     8.429810000
H       1.598400000     0.399152000     7.282810000
H       1.533889000    -2.483315000     4.112029000
H       3.274508000    -3.796966000     5.272868000
H      -0.570967000    -2.067333000     6.868969000
H      -2.736085000    -2.820218000     7.774929000
H      -4.844686000    -1.853323000     6.916409000
H      -4.778472000    -0.131491000     5.135923000
H      -2.622247000     0.609716000     4.214119000
H      -1.041341000     1.423101000     7.043215000
H      -0.864088000     3.780397000     7.733123000
H       0.457571000     5.373084000     6.378899000
H       1.610915000     4.593892000     4.333375000
H       1.440101000     2.234792000     3.643036000
I      -1.768882000     2.452998000     1.712676000
I      -2.979681000     4.251661000     3.452289000