38
energy: -46195164962471.125000 kJ/mol; low freq (cm^-1) (cm^-1) (cm^-1): 15.27, 16.1, 28.05
C       3.351094000    -2.556552000     3.983923000
C       2.995092000    -1.372286000     4.618353000
C       1.968184000    -0.588208000     4.106759000
C       1.294133000    -0.987833000     2.953068000
C       1.660160000    -2.173609000     2.312564000
C       2.682070000    -2.956002000     2.831599000
P      -0.090560000    -0.017769000     2.272812000
C      -1.596844000    -0.719484000     3.016144000
C      -1.546020000    -1.663776000     4.038115000
C      -2.724884000    -2.182083000     4.562911000
C      -3.952691000    -1.758019000     4.072359000
C      -4.005292000    -0.814330000     3.050425000
C      -2.832736000    -0.300732000     2.519170000
C       0.079539000     1.644148000     3.001380000
C      -0.572672000     1.997521000     4.182208000
C      -0.388337000     3.263283000     4.725596000
C       0.446656000     4.178545000     4.095682000
C       1.096392000     3.830021000     2.915906000
C       0.910598000     2.569333000     2.366768000
Au     -0.139067000     0.025062000     0.001175000
Cl     -0.161968000     0.131096000    -2.290057000
H       4.152150000    -3.164130000     4.382386000
H       3.517430000    -1.055481000     5.510719000
H       1.698093000     0.333518000     4.601480000
H       1.145915000    -2.482205000     1.413510000
H       2.960085000    -3.873338000     2.331388000
H      -0.593101000    -2.003670000     4.416481000
H      -2.680402000    -2.922442000     5.349790000
H      -4.868060000    -2.168177000     4.476449000
H      -4.959388000    -0.491358000     2.657563000
H      -2.873746000     0.411521000     1.705839000
H      -1.226146000     1.289763000     4.671744000
H      -0.899700000     3.534005000     5.639237000
H       0.585747000     5.164156000     4.518486000
H       1.739516000     4.542739000     2.418432000
H       1.403793000     2.303800000     1.441007000
Cl     -1.401372000    -2.591235000     0.099687000
Cl     -2.319280000    -4.413319000     0.495670000