38
energy: -6474006.323000 kJ/mol; low freq (cm^-1): 10.17, 12.0, 21.17
C       3.414833000    -2.528244000     4.056560000
C       3.075012000    -1.316032000     4.644788000
C       2.044252000    -0.548279000     4.115690000
C       1.351154000    -0.992846000     2.990527000
C       1.700792000    -2.207609000     2.395877000
C       2.725957000    -2.972993000     2.932531000
P      -0.036369000    -0.045794000     2.285333000
C      -1.543430000    -0.767172000     3.005787000
C      -1.492946000    -1.703447000     4.035255000
C      -2.670975000    -2.241589000     4.541414000
C      -3.897166000    -1.845828000     4.024282000
C      -3.949365000    -0.909634000     2.995569000
C      -2.777651000    -0.375448000     2.483563000
C       0.094907000     1.624632000     3.000419000
C      -0.566810000     1.970285000     4.178376000
C      -0.416149000     3.244749000     4.711295000
C       0.394598000     4.176638000     4.073845000
C       1.054248000     3.835783000     2.897479000
C       0.902086000     2.566010000     2.358889000
Au     -0.033918000    -0.019929000     0.007797000
Cl      0.004155000     0.059547000    -2.283574000
H       4.218490000    -3.122869000     4.468739000
H       3.612476000    -0.964581000     5.514759000
H       1.785792000     0.394688000     4.574988000
H       1.170616000    -2.552053000     1.519065000
H       2.990682000    -3.912886000     2.468567000
H      -0.540974000    -2.023090000     4.432952000
H      -2.626603000    -2.976116000     5.333504000
H      -4.811492000    -2.273036000     4.412309000
H      -4.901883000    -0.610056000     2.581466000
H      -2.817870000     0.329051000     1.663725000
H      -1.201641000     1.249576000     4.673410000
H      -0.934936000     3.509325000     5.622356000
H       0.506956000     5.169048000     4.488243000
H       1.678652000     4.560875000     2.394385000
H       1.403077000     2.306170000     1.435753000
Br     -1.378919000    -2.634429000    -0.046817000
Br     -2.532489000    -4.644637000     0.477625000