38
energy: -45410879253704.281250 kJ/mol; low freq (cm^-1) (cm^-1) (cm^-1): 14.49, 16.99, 23.09
C       3.332670000    -2.578458000     4.046326000
C       3.053467000    -1.337305000     4.604806000
C       2.037055000    -0.547872000     4.078994000
C       1.297821000    -1.000018000     2.986995000
C       1.586979000    -2.244393000     2.421440000
C       2.597466000    -3.030849000     2.954905000
P      -0.070005000    -0.024050000     2.280577000
C      -1.587907000    -0.720965000     3.003553000
C      -1.554549000    -1.555062000     4.119103000
C      -2.739086000    -2.055614000     4.647160000
C      -3.956396000    -1.725316000     4.065352000
C      -3.991722000    -0.894681000     2.949406000
C      -2.812359000    -0.397853000     2.416078000
C       0.095515000     1.640261000     3.004465000
C      -0.573083000     2.003477000     4.172963000
C      -0.395840000     3.273561000     4.708644000
C       0.448685000     4.183391000     4.083629000
C       1.114955000     3.825215000     2.916067000
C       0.935773000     2.560457000     2.374303000
Au     -0.061189000     0.025393000    -0.001645000
Br     -0.001990000     0.164799000    -2.413976000
H       4.124929000    -3.190080000     4.455690000
H       3.626773000    -0.979869000     5.449097000
H       1.825190000     0.417298000     4.515374000
H       1.022177000    -2.594319000     1.568910000
H       2.815388000    -3.993406000     2.513547000
H      -0.609300000    -1.821508000     4.569257000
H      -2.707891000    -2.708428000     5.508527000
H      -4.876012000    -2.121979000     4.472995000
H      -4.936388000    -0.647008000     2.485882000
H      -2.837571000     0.225971000     1.532856000
H      -1.233701000     1.300329000     4.659244000
H      -0.920423000     3.551804000     5.612310000
H       0.582119000     5.172283000     4.500210000
H       1.765332000     4.533454000     2.421909000
H       1.440702000     2.288014000     1.456982000
Cl     -1.325829000    -2.579091000    -0.012788000
Cl     -2.261307000    -4.406630000     0.337379000