38
energy: -6360228.671000 kJ/mol; low freq (cm^-1): 10.1, 10.76, 16.66
C       3.377694000    -2.541850000     4.108656000
C       3.073924000    -1.305432000     4.664986000
C       2.055867000    -0.527938000     4.124955000
C       1.340083000    -0.987235000     3.020457000
C       1.653660000    -2.226935000     2.457357000
C       2.665431000    -3.001705000     3.005247000
P      -0.026459000    -0.027227000     2.291702000
C      -1.550871000    -0.731815000     2.992390000
C      -1.525693000    -1.665695000     4.025101000
C      -2.716377000    -2.193073000     4.512471000
C      -3.930418000    -1.788993000     3.973574000
C      -3.957532000    -0.855141000     2.941832000
C      -2.773019000    -0.331876000     2.448301000
C       0.110732000     1.644978000     2.999875000
C      -0.534612000     1.989996000     4.187382000
C      -0.377802000     3.264436000     4.718022000
C       0.422512000     4.197373000     4.068543000
C       1.064777000     3.857570000     2.882463000
C       0.906425000     2.587321000     2.346119000
Au      0.007814000    -0.054716000     0.005968000
Br      0.074902000    -0.092411000    -2.409878000
H       4.171394000    -3.143936000     4.529193000
H       3.629485000    -0.942409000     5.518690000
H       1.825246000     0.433572000     4.559901000
H       1.106077000    -2.582774000     1.595651000
H       2.902092000    -3.960657000     2.565755000
H      -0.583171000    -1.991672000     4.439833000
H      -2.691339000    -2.925862000     5.307018000
H      -4.854560000    -2.208031000     4.346954000
H      -4.900554000    -0.549029000     2.511077000
H      -2.793694000     0.370683000     1.626047000
H      -1.161254000     1.268220000     4.691404000
H      -0.883282000     3.528603000     5.636668000
H       0.539853000     5.189820000     4.481523000
H       1.680525000     4.583622000     2.370143000
H       1.393149000     2.327442000     1.415397000
Br     -1.399858000    -2.654654000    -0.072588000
Br     -2.572496000    -4.617061000     0.578340000