38
energy: -40243541456777.234375 kJ/mol; low freq (cm^-1) (cm^-1) (cm^-1): 4.4, 16.28, 25.46
C       3.415841000    -2.557807000     6.414354000
C       3.043710000    -1.357805000     7.008216000
C       2.043878000    -0.577094000     6.438659000
C       1.414819000    -0.996364000     5.267467000
C       1.798260000    -2.198225000     4.667694000
C       2.791345000    -2.977441000     5.243417000
P       0.061556000    -0.044833000     4.501451000
C      -1.472521000    -0.814193000     5.113546000
C      -1.483254000    -1.638522000     6.238502000
C      -2.677830000    -2.200508000     6.674277000
C      -3.860432000    -1.944279000     5.990350000
C      -3.852168000    -1.124523000     4.866560000
C      -2.662555000    -0.562857000     4.426810000
C       0.133843000     1.606285000     5.268188000
C      -0.617077000     1.922926000     6.399539000
C      -0.502948000     3.181249000     6.979024000
C       0.360274000     4.124913000     6.434893000
C       1.107565000     3.813105000     5.303334000
C       0.991245000     2.560610000     4.717288000
Au      0.127333000    -0.043720000     2.244900000
Cl      0.043521000    -0.178852000    -0.079764000
H       4.195110000    -3.162526000     6.858028000
H       3.531583000    -1.026106000     7.914649000
H       1.759300000     0.356291000     6.902873000
H       1.321621000    -2.517835000     3.750269000
H       3.083574000    -3.906933000     4.774500000
H      -0.564112000    -1.851234000     6.765778000
H      -2.680541000    -2.845629000     7.542425000
H      -4.785922000    -2.394387000     6.322672000
H      -4.765009000    -0.942589000     4.317589000
H      -2.653088000     0.050063000     3.536372000
H      -1.292529000     1.193047000     6.822238000
H      -1.091089000     3.423871000     7.853407000
H       0.445310000     5.104217000     6.885825000
H       1.772463000     4.548513000     4.871899000
H       1.558153000     2.322394000     3.827096000
I      -2.319215000    -2.036878000     0.824977000
I      -4.371119000    -3.617604000     1.756357000