38
energy: -41650838767082.023438 kJ/mol; low freq (cm^-1) (cm^-1) (cm^-1): 3.81, 20.57, 23.43
C       3.580238000    -2.349970000     6.964593000
C       3.110114000    -1.144129000     7.470478000
C       2.072791000    -0.475614000     6.830775000
C       1.503511000    -1.013902000     5.677592000
C       1.985209000    -2.220578000     5.166420000
C       3.016034000    -2.887924000     5.812014000
P       0.108649000    -0.207839000     4.826697000
C      -1.393459000    -0.991713000     5.491520000
C      -1.389745000    -1.657302000     6.717942000
C      -2.565356000    -2.213090000     7.206886000
C      -3.744042000    -2.107800000     6.476367000
C      -3.749473000    -1.448622000     5.251767000
C      -2.577185000    -0.894363000     4.757086000
C       0.092490000     1.507207000     5.441064000
C      -0.738381000     1.906982000     6.486268000
C      -0.697696000     3.219847000     6.941662000
C       0.170771000     4.134559000     6.359038000
C       0.998099000     3.739084000     5.312284000
C       0.955726000     2.432076000     4.849789000
Au      0.191475000    -0.330226000     2.551183000
I       0.027249000    -0.466883000    -0.055264000
H       4.389032000    -2.866953000     7.462387000
H       3.550971000    -0.720497000     8.362318000
H       1.711996000     0.463230000     7.225523000
H       1.556381000    -2.630250000     4.261519000
H       3.384925000    -3.821823000     5.411304000
H      -0.474295000    -1.748334000     7.284767000
H      -2.558268000    -2.732490000     8.155362000
H      -4.655884000    -2.547296000     6.857032000
H      -4.655063000    -1.373135000     4.667110000
H      -2.584751000    -0.401854000     3.794684000
H      -1.419473000     1.200251000     6.937578000
H      -1.348513000     3.526884000     7.748659000
H       0.197366000     5.156142000     6.712392000
H       1.666889000     4.451269000     4.849354000
H       1.584685000     2.128637000     4.023400000
Br     -2.916086000    -0.481371000     0.835541000
Br     -5.201992000    -0.490414000     1.657070000