38
energy: -6269763.705000 kJ/mol; low freq (cm^-1): 8.7, 21.29, 24.75
C       3.472273000    -2.262644000     6.398572000
C       3.121324000    -1.050735000     6.980595000
C       2.018982000    -0.344457000     6.513147000
C       1.264517000    -0.851449000     5.456457000
C       1.627451000    -2.063568000     4.865650000
C       2.723738000    -2.768682000     5.340267000
P      -0.210998000     0.010822000     4.824942000
C      -1.625770000    -0.772759000     5.664309000
C      -1.467306000    -1.547863000     6.812221000
C      -2.580407000    -2.094586000     7.440328000
C      -3.852204000    -1.868562000     6.928151000
C      -4.013034000    -1.098242000     5.780535000
C      -2.904387000    -0.556478000     5.146546000
C      -0.124310000     1.704085000     5.488349000
C      -0.682295000     2.036995000     6.723121000
C      -0.567352000     3.333940000     7.207502000
C       0.101723000     4.300146000     6.463856000
C       0.654932000     3.972058000     5.230763000
C       0.540151000     2.678687000     4.740672000
Au     -0.341750000     0.021973000     2.548589000
I      -0.356340000     0.308817000    -0.045711000
H       4.332536000    -2.808099000     6.761425000
H       3.707107000    -0.650318000     7.796487000
H       1.753051000     0.600546000     6.964019000
H       1.056780000    -2.446482000     4.030004000
H       3.000894000    -3.705757000     4.877763000
H      -0.479857000    -1.728666000     7.211798000
H      -2.452020000    -2.698345000     8.328145000
H      -4.716302000    -2.296999000     7.417049000
H      -5.000381000    -0.927412000     5.374563000
H      -3.026888000     0.029523000     4.245292000
H      -1.210496000     1.291231000     7.299909000
H      -1.005207000     3.589915000     8.162580000
H       0.183440000     5.310441000     6.840841000
H       1.163416000     4.717947000     4.636997000
H       0.953474000     2.435772000     3.771733000
Cl      1.069467000     2.794839000     0.898014000
Cl      2.077090000     4.520254000     1.656684000