38
energy: -6587735.618000 kJ/mol; low freq (cm^-1): 8.73, 22.64, 28.07
C       3.519080000    -2.457213000     6.679001000
C       3.082918000    -1.256980000     7.226890000
C       2.050829000    -0.548155000     6.623071000
C       1.452341000    -1.039940000     5.463947000
C       1.900237000    -2.241104000     4.910591000
C       2.926100000    -2.948785000     5.520187000
P       0.064356000    -0.179205000     4.654685000
C      -1.445494000    -0.941134000     5.332076000
C      -1.443797000    -1.621472000     6.549903000
C      -2.624393000    -2.164664000     7.041520000
C      -3.806750000    -2.032501000     6.321655000
C      -3.810328000    -1.359091000     5.104723000
C      -2.633312000    -0.817290000     4.608012000
C       0.102725000     1.518921000     5.315482000
C      -0.680244000     1.905591000     6.401936000
C      -0.594378000     3.203231000     6.893127000
C       0.272084000     4.116452000     6.305030000
C       1.051207000     3.734692000     5.217128000
C       0.963319000     2.442880000     4.719142000
Au      0.084724000    -0.273660000     2.391651000
Br     -0.121179000    -0.407041000    -0.039773000
H       4.324272000    -3.005383000     7.148501000
H       3.546709000    -0.868715000     8.123208000
H       1.718108000     0.387043000     7.049877000
H       1.450070000    -2.613828000     4.000143000
H       3.269125000    -3.877591000     5.086021000
H      -0.525145000    -1.734976000     7.107556000
H      -2.618453000    -2.696063000     7.983300000
H      -4.722309000    -2.462846000     6.703798000
H      -4.720169000    -1.265436000     4.529290000
H      -2.635582000    -0.315400000     3.650604000
H      -1.359499000     1.200423000     6.858473000
H      -1.208029000     3.499732000     7.732582000
H       0.334455000     5.126238000     6.686735000
H       1.718135000     4.446024000     4.750174000
H       1.554327000     2.150679000     3.861351000
Cl     -2.964675000    -0.478601000     0.759403000
Cl     -4.957785000    -0.522354000     1.408201000