38
energy: -43842692325697.867188 kJ/mol; low freq (cm^-1) (cm^-1) (cm^-1): 6.04, 21.94, 25.84
C       3.513170000    -2.440282000     6.713949000
C       3.085811000    -1.230549000     7.247419000
C       2.059560000    -0.520852000     6.634507000
C       1.458414000    -1.021651000     5.480733000
C       1.897301000    -2.232698000     4.941816000
C       2.917259000    -2.940856000     5.560411000
P       0.074867000    -0.161862000     4.662795000
C      -1.436136000    -0.933950000     5.323299000
C      -1.445565000    -1.576370000     6.562229000
C      -2.624179000    -2.129068000     7.046637000
C      -3.793487000    -2.046118000     6.298061000
C      -3.785843000    -1.412136000     5.060574000
C      -2.610370000    -0.858858000     4.571699000
C       0.107379000     1.535381000     5.325357000
C      -0.701360000     1.927635000     6.390508000
C      -0.617087000     3.224107000     6.885435000
C       0.273369000     4.130018000     6.322650000
C       1.078381000     3.742507000     5.255706000
C       0.992180000     2.452276000     4.753728000
Au      0.136291000    -0.246796000     2.399371000
Br      0.010761000    -0.377321000    -0.045021000
H       4.313464000    -2.989342000     7.190706000
H       3.551523000    -0.835653000     8.139826000
H       1.733147000     0.421354000     7.050550000
H       1.444186000    -2.613793000     4.036288000
H       3.253110000    -3.877573000     5.137808000
H      -0.536518000    -1.653446000     7.141498000
H      -2.626840000    -2.630391000     8.004781000
H      -4.707394000    -2.485094000     6.674281000
H      -4.683345000    -1.360229000     4.461135000
H      -2.604951000    -0.388287000     3.598514000
H      -1.398422000     1.227957000     6.828153000
H      -1.250473000     3.525125000     7.708430000
H       0.334889000     5.138594000     6.707643000
H       1.764730000     4.448035000     4.808511000
H       1.604659000     2.155610000     3.912677000
Br     -2.831336000    -0.874900000     0.632001000
Br     -5.111816000    -1.274597000     1.254537000