38
energy: -40243539024631.742188 kJ/mol; low freq (cm^-1) (cm^-1) (cm^-1): 4.46, 18.26, 23.2
C       3.386686000    -2.556901000     4.019554000
C       3.190311000    -1.280016000     4.529244000
C       2.177619000    -0.472775000     4.021164000
C       1.361653000    -0.944551000     2.995930000
C       1.566997000    -2.226571000     2.478061000
C       2.572314000    -3.029686000     2.993874000
P      -0.000977000     0.043384000     2.295888000
C      -1.513460000    -0.729795000     2.956927000
C      -1.488882000    -1.516445000     4.108295000
C      -2.660586000    -2.095738000     4.579262000
C      -3.857580000    -1.896952000     3.902679000
C      -3.885019000    -1.116570000     2.752218000
C      -2.717841000    -0.536602000     2.278140000
C       0.118795000     1.684227000     3.074101000
C      -0.503961000     1.965476000     4.289989000
C      -0.357510000     3.218675000     4.871426000
C       0.411001000     4.193342000     4.245027000
C       1.030146000     3.917189000     3.030583000
C       0.880385000     2.668657000     2.442586000
Au     -0.007131000    -0.002111000     0.038646000
Cl     -0.164254000    -0.348299000    -2.257752000
H       4.174612000    -3.182551000     4.415835000
H       3.823839000    -0.908442000     5.322882000
H       2.027445000     0.519186000     4.421789000
H       0.940242000    -2.591863000     1.675004000
H       2.724770000    -4.021497000     2.591626000
H      -0.556930000    -1.689700000     4.626921000
H      -2.634096000    -2.712398000     5.466993000
H      -4.765208000    -2.362587000     4.260990000
H      -4.810482000    -0.977024000     2.211663000
H      -2.734347000     0.045694000     1.367337000
H      -1.106967000     1.212190000     4.776397000
H      -0.846817000     3.434051000     5.811308000
H       0.520686000     5.169120000     4.697933000
H       1.620499000     4.676190000     2.536380000
H       1.345081000     2.456391000     1.488969000
I      -1.618430000    -2.810214000    -0.698376000
I      -2.839585000    -4.722949000     0.847236000