20
energy: -4431293.297000 kJ/mol; low freq (cm^-1): 17.03, 25.87, 45.06
C      -1.705776000    -2.078088000     4.292913000
C      -0.568516000    -1.534901000     5.166814000
C       0.715294000    -2.342455000     4.940605000
C      -0.965602000    -1.549135000     6.646275000
P      -0.236293000     0.220690000     4.640169000
Au      0.432137000     0.516720000     2.514956000
Cl      1.122319000     0.628185000     0.295907000
H      -2.628752000    -1.514475000     4.437192000
H      -1.899992000    -3.116651000     4.564382000
H      -1.446200000    -2.055889000     3.235849000
H       1.014444000    -2.334540000     3.893790000
H       0.540168000    -3.379844000     5.229151000
H       1.542203000    -1.961312000     5.541831000
H      -1.873220000    -0.972125000     6.827275000
H      -0.173018000    -1.152812000     7.281952000
H      -1.157943000    -2.577745000     6.957312000
H       0.645589000     0.697869000     5.630789000
H      -1.406659000     0.904605000     5.026192000
I       0.502451000    -2.418987000     0.697143000
I      -0.151110000    -5.006746000     1.361495000