20
energy: -29761728559922.156250 kJ/mol; low freq (cm^-1) (cm^-1) (cm^-1): 21.38, 23.66, 41.63
C      -1.512271000    -2.295206000     2.006774000
C      -0.543049000    -1.616484000     2.982238000
C       0.850561000    -2.249207000     2.880936000
C      -1.072267000    -1.693968000     4.418024000
P      -0.392746000     0.171866000     2.485661000
Au      0.415548000     0.573267000     0.417632000
Br      1.300717000     0.788979000    -1.853734000
H      -2.504796000    -1.844164000     2.043074000
H      -1.612166000    -3.347285000     2.277529000
H      -1.146175000    -2.250563000     0.982483000
H       1.231099000    -2.216942000     1.861553000
H       0.790250000    -3.295974000     3.181825000
H       1.568091000    -1.752899000     3.536304000
H      -2.063323000    -1.248314000     4.508046000
H      -0.405226000    -1.196389000     5.122696000
H      -1.150210000    -2.740901000     4.716402000
H       0.328306000     0.749859000     3.550008000
H      -1.670900000     0.698952000     2.760367000
I       1.101946000    -2.378956000    -1.341436000
I       0.841097000    -5.047249000    -0.660324000