20
energy: -27569864664195.128906 kJ/mol; low freq (cm^-1) (cm^-1) (cm^-1): 21.71, 26.94, 38.1
C      -1.664751000    -2.071509000     4.723853000
C      -0.458435000    -1.531151000     5.501431000
C       0.800171000    -2.345489000     5.178437000
C      -0.736785000    -1.534552000     7.007809000
P      -0.160894000     0.219004000     4.938599000
Au      0.276647000     0.517024000     2.729413000
I       0.757146000     0.630944000     0.164342000
H      -2.568657000    -1.497453000     4.933571000
H      -1.846235000    -3.105602000     5.019507000
H      -1.487012000    -2.062213000     3.649899000
H       1.020346000    -2.338549000     4.112321000
H       0.640751000    -3.382669000     5.475899000
H       1.671420000    -1.970225000     5.717600000
H      -1.623758000    -0.950761000     7.256508000
H       0.106362000    -1.140071000     7.576040000
H      -0.910160000    -2.560431000     7.338289000
H       0.827056000     0.689239000     5.827122000
H      -1.274294000     0.921373000     5.442180000
I       0.241444000    -2.561091000     1.022793000
I      -0.204455000    -5.143774000     1.967480000