20
energy: -34145075491986.167969 kJ/mol; low freq (cm^-1) (cm^-1) (cm^-1): 5.25, 21.03, 28.94
C      -2.372831000    -1.416515000     2.448085000
C      -0.910206000    -1.594955000     2.871412000
C      -0.321100000    -2.864971000     2.245253000
C      -0.788487000    -1.636478000     4.398298000
P       0.064943000    -0.146839000     2.226624000
Au      0.211919000     0.145227000    -0.023479000
Br      0.439274000     0.406264000    -2.405404000
H      -2.806932000    -0.505251000     2.859410000
H      -2.954288000    -2.263454000     2.816552000
H      -2.476491000    -1.378141000     1.365005000
H      -0.398829000    -2.847105000     1.158558000
H      -0.872104000    -3.733381000     2.610127000
H       0.728186000    -2.999641000     2.511992000
H      -1.182065000    -0.730262000     4.859571000
H       0.246659000    -1.763402000     4.717136000
H      -1.362002000    -2.481950000     4.783176000
H       1.308442000    -0.294428000     2.874901000
H      -0.451091000     0.950805000     2.940595000
Br     -2.337499000     1.644481000     0.118020000
Br     -4.401908000     2.757458000     0.500226000