20
energy: -35713322792884.296875 kJ/mol; low freq (cm^-1) (cm^-1) (cm^-1): 24.03, 27.18, 36.0
C      -2.320105000    -1.730313000     2.460650000
C      -0.852598000    -1.783103000     2.903286000
C      -0.184627000    -3.063460000     2.388395000
C      -0.741641000    -1.690563000     4.428467000
P       0.014020000    -0.323961000     2.137881000
Au      0.023356000    -0.163985000    -0.126192000
Br     -0.020168000    -0.009243000    -2.529756000
H      -2.813422000    -0.819020000     2.801854000
H      -2.855139000    -2.579624000     2.888827000
H      -2.411949000    -1.784787000     1.376214000
H      -0.251746000    -3.143134000     1.304593000
H      -0.687476000    -3.927670000     2.825926000
H       0.868740000    -3.111387000     2.664209000
H      -1.204304000    -0.781181000     4.813455000
H       0.297281000    -1.714504000     4.758508000
H      -1.253981000    -2.542169000     4.880499000
H       1.287310000    -0.340318000     2.738844000
H      -0.557804000     0.769047000     2.821001000
Cl      2.399619000    -1.903861000     0.038682000
Cl      3.983858000    -3.188067000     0.414072000