20
energy: -34929440007133.382812 kJ/mol; low freq (cm^-1) (cm^-1) (cm^-1): 23.44, 30.08, 46.22
C      -2.487613000    -0.731975000     4.883003000
C      -1.084817000    -1.280160000     5.173484000
C      -0.835490000    -2.561544000     4.367832000
C      -0.897950000    -1.533471000     6.672405000
P       0.149660000    -0.007471000     4.605841000
Au      0.068128000     0.485178000     2.417112000
Cl     -0.216484000     0.812241000     0.136940000
H      -2.681954000     0.190767000     5.431813000
H      -3.229866000    -1.469080000     5.192709000
H      -2.631896000    -0.542316000     3.820683000
H      -0.967915000    -2.394777000     3.299991000
H      -1.552329000    -3.323289000     4.677838000
H       0.167539000    -2.956320000     4.537027000
H      -1.059488000    -0.628154000     7.258730000
H       0.098520000    -1.915833000     6.896618000
H      -1.622882000    -2.278818000     7.004982000
H       1.378329000    -0.497563000     5.092319000
H      -0.041965000     1.064078000     5.501168000
Br     -2.361484000    -1.124976000     0.763811000
Br     -4.030318000    -2.660591000     1.447686000