20
energy: -33521518044429.093750 kJ/mol; low freq (cm^-1) (cm^-1) (cm^-1): 21.06, 37.49, 39.7
C      -2.404160000    -0.789518000     5.189044000
C      -0.984375000    -1.280371000     5.498228000
C      -0.674027000    -2.553012000     4.699749000
C      -0.802490000    -1.521629000     6.999534000
P       0.202721000     0.039042000     4.933428000
Au      0.109085000     0.491560000     2.711188000
I      -0.292320000     0.716297000     0.150705000
H      -2.642609000     0.125629000     5.733362000
H      -3.120426000    -1.555379000     5.489679000
H      -2.542307000    -0.607990000     4.124509000
H      -0.805751000    -2.396955000     3.630310000
H      -1.359948000    -3.343544000     5.007246000
H       0.343784000    -2.902952000     4.879113000
H      -1.001238000    -0.621406000     7.582226000
H       0.205159000    -1.867449000     7.232876000
H      -1.502733000    -2.292025000     7.328054000
H       1.446014000    -0.390877000     5.439837000
H      -0.046067000     1.110934000     5.814382000
Cl     -2.324183000    -1.363345000     1.180762000
Cl     -3.692161000    -2.781387000     1.958861000