20
energy: -4953419.507000 kJ/mol; low freq (cm^-1): 22.29, 29.17, 43.28
C      -1.767548000    -2.157996000     4.328318000
C      -0.564957000    -1.733657000     5.180850000
C       0.655655000    -2.602292000     4.851169000
C      -0.900863000    -1.807252000     6.673403000
P      -0.145567000     0.023546000     4.731500000
Au      0.394815000     0.351961000     2.567783000
Br      0.940826000     0.402862000     0.186180000
H      -2.642828000    -1.537880000     4.528079000
H      -2.026464000    -3.190651000     4.566298000
H      -1.541563000    -2.110067000     3.264282000
H       0.906087000    -2.555823000     3.792532000
H       0.429954000    -3.641678000     5.093385000
H       1.531134000    -2.304796000     5.430438000
H      -1.762329000    -1.187519000     6.924868000
H      -0.059297000    -1.495201000     7.292961000
H      -1.143977000    -2.838198000     6.937317000
H       0.829605000     0.387301000     5.681832000
H      -1.237699000     0.764145000     5.226740000
Br      0.286074000    -2.490687000     0.740024000
Br     -0.242407000    -4.751927000     1.290842000