20
energy: -31953304401072.988281 kJ/mol; low freq (cm^-1) (cm^-1) (cm^-1): 22.23, 31.8, 40.29
C      -2.393420000    -0.791642000     5.167867000
C      -0.979954000    -1.282976000     5.504257000
C      -0.662342000    -2.569780000     4.732357000
C      -0.821019000    -1.497657000     7.012457000
P       0.220338000     0.022969000     4.938624000
Au      0.124516000     0.517235000     2.725115000
I      -0.267217000     0.828037000     0.164700000
H      -2.632004000     0.137261000     5.688392000
H      -3.116665000    -1.546719000     5.478476000
H      -2.519435000    -0.634896000     4.097910000
H      -0.764112000    -2.428640000     3.657666000
H      -1.366616000    -3.347466000     5.030435000
H       0.345833000    -2.928961000     4.944992000
H      -1.033161000    -0.587806000     7.575115000
H       0.183536000    -1.835752000     7.269404000
H      -1.524607000    -2.264494000     7.342009000
H       1.462419000    -0.427734000     5.429365000
H      -0.003357000     1.093811000     5.827396000
Br     -2.211469000    -1.425475000     1.107394000
Br     -3.665976000    -3.155092000     1.961292000