20
energy: -27569864776038.113281 kJ/mol; low freq (cm^-1) (cm^-1) (cm^-1): 22.24, 26.77, 37.94
C      -1.970088000    -0.003592000     3.108529000
C      -0.835067000    -1.034047000     3.149646000
C      -1.161288000    -2.231610000     2.249097000
C      -0.567388000    -1.491468000     4.586940000
P       0.696219000    -0.217780000     2.473178000
Au      0.577597000     0.566187000     0.344445000
I       0.226884000     1.391986000    -2.108417000
H      -1.751975000     0.860803000     3.737779000
H      -2.886205000    -0.466380000     3.477677000
H      -2.161209000     0.343041000     2.094400000
H      -1.341598000    -1.923172000     1.220771000
H      -2.068703000    -2.715589000     2.612528000
H      -0.358993000    -2.971172000     2.256489000
H      -0.319685000    -0.653093000     5.239055000
H       0.244683000    -2.217893000     4.635485000
H      -1.465058000    -1.968669000     4.984706000
H       1.711506000    -1.163710000     2.720132000
H       1.026217000     0.734238000     3.458717000
I      -2.588993000    -0.074114000    -1.046401000
I      -4.824715000    -1.326615000     0.045591000