20
energy: -4431282.093000 kJ/mol; low freq (cm^-1): 13.16, 22.71, 26.95
C      -2.365335000    -1.335550000     2.486932000
C      -0.925330000    -1.440403000     3.003254000
C      -0.284558000    -2.756259000     2.544843000
C      -0.887791000    -1.319481000     4.530077000
P       0.059314000    -0.052013000     2.253053000
Au      0.119945000     0.050673000    -0.006243000
Cl      0.137193000     0.096847000    -2.291818000
H      -2.830126000    -0.391436000     2.770796000
H      -2.956735000    -2.146174000     2.916234000
H      -2.410657000    -1.419407000     1.402056000
H      -0.291311000    -2.847138000     1.458844000
H      -0.849130000    -3.593955000     2.957434000
H       0.746315000    -2.846542000     2.890625000
H      -1.339331000    -0.387295000     4.870303000
H       0.130717000    -1.370700000     4.916441000
H      -1.452990000    -2.143014000     4.970835000
H       1.307083000    -0.162378000     2.900188000
H      -0.441972000     1.101231000     2.884940000
I      -2.386152000     1.987945000     0.001799000
I      -4.500938000     3.670725000     0.512801000