20
energy: -35713379540539.890625 kJ/mol; low freq (cm^-1) (cm^-1) (cm^-1): 21.49, 36.67, 44.29
C      -2.490123000    -1.046702000     4.904490000
C      -1.052870000    -1.508552000     5.175320000
C      -0.702185000    -2.707945000     4.285104000
C      -0.858617000    -1.852807000     6.654759000
P       0.087015000    -0.112630000     4.707025000
Au      0.020136000     0.448703000     2.524789000
Br     -0.273713000     0.798265000     0.132316000
H      -2.760969000    -0.187638000     5.520151000
H      -3.177212000    -1.860053000     5.142348000
H      -2.636497000    -0.784447000     3.857803000
H      -0.848731000    -2.478128000     3.230967000
H      -1.353703000    -3.545196000     4.539594000
H       0.330220000    -3.029965000     4.429974000
H      -1.084931000    -1.004101000     7.301225000
H       0.160757000    -2.180756000     6.861715000
H      -1.532049000    -2.667732000     6.927277000
H       1.337498000    -0.522257000     5.212457000
H      -0.218845000     0.895523000     5.643801000
Cl     -2.333503000    -1.276447000     0.819119000
Cl     -3.717400000    -2.716789000     1.418568000