20
energy: -5294696.599000 kJ/mol; low freq (cm^-1): 25.53, 33.48, 50.48
C      -2.505484000    -0.764267000     4.893239000
C      -1.098259000    -1.310132000     5.167018000
C      -0.859741000    -2.594132000     4.362170000
C      -0.891829000    -1.559305000     6.663930000
P       0.125746000    -0.038346000     4.574660000
Au     -0.011219000     0.462075000     2.391177000
Cl     -0.353084000     0.802173000     0.131361000
H      -2.691477000     0.163086000     5.437142000
H      -3.243796000    -1.498047000     5.220237000
H      -2.663604000    -0.580951000     3.831591000
H      -1.002781000    -2.429533000     3.295316000
H      -1.573333000    -3.354907000     4.682368000
H       0.144782000    -2.989263000     4.521005000
H      -1.047312000    -0.652583000     7.249695000
H       0.108416000    -1.938619000     6.876186000
H      -1.610574000    -2.305305000     7.008536000
H       1.361950000    -0.535244000     5.035612000
H      -0.043892000     1.027091000     5.482217000
Cl     -2.431899000    -1.228698000     0.804914000
Cl     -3.826662000    -2.627135000     1.409205000