20
energy: -29761728965431.394531 kJ/mol; low freq (cm^-1) (cm^-1) (cm^-1): 21.05, 24.51, 41.9
C      -1.650991000    -2.266198000     4.295443000
C      -0.522550000    -1.724151000     5.181185000
C       0.783158000    -2.481517000     4.910510000
C      -0.904654000    -1.808773000     6.662188000
P      -0.248630000     0.060064000     4.723609000
Au      0.291059000     0.473766000     2.572248000
Br      0.856717000     0.723903000     0.203734000
H      -2.586226000    -1.728676000     4.459775000
H      -1.820342000    -3.316656000     4.536012000
H      -1.395487000    -2.204973000     3.238917000
H       1.073892000    -2.417732000     3.863263000
H       0.640664000    -3.535951000     5.151052000
H       1.602582000    -2.104306000     5.524334000
H      -1.827235000    -1.266736000     6.873173000
H      -0.117974000    -1.414174000     7.306341000
H      -1.063529000    -2.854204000     6.933385000
H       0.673001000     0.510645000     5.690015000
H      -1.410017000     0.703426000     5.196645000
I       0.550503000    -2.444560000     0.697161000
I       0.230372000    -5.112415000     1.351316000