20
energy: -31953304434263.988281 kJ/mol; low freq (cm^-1) (cm^-1) (cm^-1): 22.18, 30.88, 39.71
C      -1.598762000    -2.076149000     2.322129000
C      -0.481986000    -1.441992000     3.160874000
C       0.818091000    -2.242239000     3.013397000
C      -0.895558000    -1.338280000     4.632036000
P      -0.172591000     0.266546000     2.488550000
Au      0.416848000     0.343129000     0.298111000
I       1.058193000     0.057296000    -2.213801000
H      -2.527194000    -1.506817000     2.389790000
H      -1.794260000    -3.083373000     2.692368000
H      -1.315294000    -2.159029000     1.274183000
H       1.128068000    -2.316777000     1.972445000
H       0.656466000    -3.255904000     3.382244000
H       1.631476000    -1.799685000     3.590576000
H      -1.814025000    -0.763055000     4.754291000
H      -0.116290000    -0.876746000     5.239628000
H      -1.075264000    -2.340220000     5.026299000
H       0.739117000     0.828227000     3.404954000
H      -1.331582000     0.983566000     2.847781000
Br      0.659366000    -2.813376000    -1.052734000
Br      0.339346000    -4.987298000    -0.049675000