20
energy: -4862947.944000 kJ/mol; low freq (cm^-1): 20.86, 37.67, 41.42
C      -1.662203000    -1.993655000     2.319265000
C      -0.508094000    -1.430776000     3.158956000
C       0.750173000    -2.289967000     2.980340000
C      -0.901855000    -1.338255000     4.636079000
P      -0.122592000     0.272839000     2.514597000
Au      0.510495000     0.321877000     0.335470000
I       1.194921000    -0.045877000    -2.148583000
H      -2.565278000    -1.389337000     2.418225000
H      -1.893455000    -3.002754000     2.662852000
H      -1.397900000    -2.056474000     1.264906000
H       1.037685000    -2.366168000     1.933022000
H       0.547292000    -3.298757000     3.342383000
H       1.594019000    -1.892689000     3.546649000
H      -1.790017000    -0.721892000     4.778341000
H      -0.095914000    -0.926646000     5.244517000
H      -1.125836000    -2.337892000     5.012991000
H       0.797201000     0.784742000     3.452104000
H      -1.257659000     1.029117000     2.870170000
Cl      0.486900000    -2.821327000    -1.032805000
Cl     -0.025627000    -4.684345000    -0.155533000