20
energy: -5067185.429000 kJ/mol; low freq (cm^-1): 13.66, 22.99, 37.48
C      -2.387617000    -1.417409000     2.618997000
C      -0.910580000    -1.558866000     3.007185000
C      -0.353468000    -2.900922000     2.517623000
C      -0.730732000    -1.417912000     4.522136000
P       0.022805000    -0.193487000     2.154364000
Au      0.043805000    -0.183567000    -0.109430000
Cl      0.028771000    -0.187404000    -2.393840000
H      -2.807744000    -0.471542000     2.963952000
H      -2.958734000    -2.224727000     3.080341000
H      -2.524926000    -1.481971000     1.539790000
H      -0.506485000    -3.030828000     1.447580000
H      -0.867722000    -3.710305000     3.038634000
H       0.713824000    -2.996112000     2.716290000
H      -1.093225000    -0.456117000     4.886945000
H       0.314272000    -1.525029000     4.814056000
H      -1.299250000    -2.201174000     5.027206000
H       1.295961000    -0.227472000     2.752997000
H      -0.498774000     0.968015000     2.760198000
Br      2.387800000    -2.024252000     0.053411000
Br      4.159003000    -3.512015000     0.574958000