20
energy: -5294690.769000 kJ/mol; low freq (cm^-1): 21.0, 27.94, 45.2
C      -2.366801000    -1.444892000     2.578229000
C      -0.898634000    -1.562535000     3.005512000
C      -0.312933000    -2.902921000     2.545717000
C      -0.759943000    -1.402526000     4.522843000
P       0.042044000    -0.196444000     2.160505000
Au      0.043986000    -0.151714000    -0.098370000
Cl      0.000678000    -0.120052000    -2.383626000
H      -2.801370000    -0.491553000     2.882326000
H      -2.943437000    -2.240993000     3.052209000
H      -2.477477000    -1.544039000     1.498727000
H      -0.396470000    -3.028298000     1.467433000
H      -0.860978000    -3.714629000     3.027246000
H       0.738613000    -3.000282000     2.815642000
H      -1.166134000    -0.451200000     4.868223000
H       0.280961000    -1.468376000     4.840595000
H      -1.311501000    -2.201341000     5.022430000
H       1.316789000    -0.255097000     2.754938000
H      -0.460811000     0.962342000     2.787001000
Cl      2.329893000    -1.994169000     0.136435000
Cl      3.847254000    -3.361123000     0.489378000