22
energy: -28399090051133.738281 kJ/mol; low freq (cm^-1) (cm^-1) (cm^-1): 1.13, 5.25, 14.04
C       0.058539000     0.079300000     1.985344000
N       0.080188000     0.121894000     3.136767000
C       0.101109000     0.164915000     4.560407000
C      -1.841037000     0.652147000    -0.054403000
N      -2.919690000     1.018164000    -0.203432000
C      -4.249664000     1.450616000    -0.471139000
C       1.863578000    -0.711113000    -0.064663000
N       2.920417000    -1.134351000    -0.217980000
C       4.209124000    -1.676203000    -0.488090000
Pt      0.013986000    -0.021695000     0.051731000
Cl     -0.046908000    -0.163083000    -2.280250000
H      -0.751580000    -0.390456000     4.945475000
H       0.046795000     1.201241000     4.887220000
H       1.024940000    -0.286009000     4.916209000
H      -4.520076000     2.234436000     0.232713000
H      -4.923964000     0.603693000    -0.362858000
H      -4.293480000     1.832074000    -1.489085000
H       4.150373000    -2.761723000    -0.443450000
H       4.914790000    -1.310299000     0.254223000
H       4.517989000    -1.361975000    -1.482815000
I      -1.030709000    -3.180796000    -1.150654000
I      -1.776183000    -5.513071000     0.032917000