22
energy: -4869467.382000 kJ/mol; low freq (cm^-1): 4.61, 8.4, 13.99
C      -0.006696000     0.030380000     1.897454000
N       0.015907000     0.106016000     3.046783000
C       0.047668000     0.220554000     4.466129000
C      -1.875985000     0.643341000    -0.177288000
N      -2.930706000     1.074852000    -0.323655000
C      -4.222171000     1.607884000    -0.597360000
C       1.815938000    -0.740364000    -0.169685000
N       2.893823000    -1.112359000    -0.311502000
C       4.216827000    -1.565582000    -0.578746000
Pt     -0.036833000    -0.066101000    -0.051857000
Br     -0.074876000    -0.180364000    -2.502224000
H      -0.789141000    -0.332326000     4.887677000
H      -0.026554000     1.271313000     4.738743000
H       0.984454000    -0.191024000     4.835400000
H      -4.317872000     2.575710000    -0.110013000
H      -4.977433000     0.923900000    -0.216471000
H      -4.331005000     1.720620000    -1.674025000
H       4.342199000    -2.562900000    -0.162841000
H       4.926622000    -0.880260000    -0.120602000
H       4.365272000    -1.590205000    -1.656296000
Cl      0.904063000     2.977089000     0.277951000
Cl      1.424496000     4.906515000     0.685658000