22
energy: -25422922888538.847656 kJ/mol; low freq (cm^-1) (cm^-1) (cm^-1): 4.15, 7.65, 16.9
C      -0.030210000     0.069498000     1.966483000
N      -0.031435000     0.084618000     3.118746000
C      -0.035636000     0.087439000     4.543287000
C      -1.985004000     0.295702000    -0.103579000
N      -3.120124000     0.436132000    -0.221382000
C      -4.515390000     0.583464000    -0.460472000
C       1.910870000    -0.295029000    -0.098384000
N       3.037587000    -0.494082000    -0.213151000
C       4.416292000    -0.758096000    -0.448287000
Pt     -0.036171000     0.005079000     0.011870000
I      -0.052212000    -0.120732000    -2.642847000
H      -0.903099000     0.641261000     4.895672000
H       0.874861000     0.563020000     4.901445000
H      -0.082354000    -0.939320000     4.900458000
H      -4.892987000     1.419926000     0.123395000
H      -5.022934000    -0.333178000    -0.167260000
H      -4.670441000     0.770007000    -1.521157000
H       4.641255000    -1.774185000    -0.130964000
H       5.018190000    -0.050772000     0.117953000
H       4.616564000    -0.648942000    -1.512179000
I      -0.629779000    -3.291369000    -1.072940000
I      -1.087018000    -5.631037000     0.267788000