22
energy: -25422922878495.382812 kJ/mol; low freq (cm^-1) (cm^-1) (cm^-1): 4.55, 10.94, 17.1
C       0.034579000    -0.095954000     4.427602000
N       0.023013000    -0.223301000     5.572842000
C       0.008673000    -0.394997000     6.986844000
C      -1.903638000     0.325738000     2.370350000
N      -3.041400000     0.441303000     2.250626000
C      -4.437074000     0.572510000     2.004260000
C       2.009136000    -0.138206000     2.364343000
N       3.142195000    -0.291757000     2.242924000
C       4.529555000    -0.491388000     1.995652000
Pt      0.052022000     0.087521000     2.480618000
I       0.072585000     0.309594000    -0.167262000
H      -0.920338000     0.007365000     7.384843000
H       0.854475000     0.135608000     7.418821000
H       0.080314000    -1.456125000     7.216690000
H      -4.839945000     1.360837000     2.636271000
H      -4.927016000    -0.372010000     2.231322000
H      -4.584525000     0.824221000     0.956017000
H       4.769968000    -1.540232000     2.156639000
H       5.108086000     0.130526000     2.675121000
H       4.744052000    -0.215814000     0.965143000
I      -0.284841000    -3.071408000     0.956355000
I      -0.553369000    -5.615167000     1.925095000