22
energy: -4983246.193000 kJ/mol; low freq (cm^-1): 7.82, 14.5, 14.96
C      -0.001336000     0.029823000     1.889618000
N       0.024490000     0.096431000     3.039405000
C       0.063834000     0.205437000     4.458999000
C      -1.878588000     0.654808000    -0.166311000
N      -2.932491000     1.084399000    -0.319972000
C      -4.224034000     1.617120000    -0.595437000
C       1.818487000    -0.728320000    -0.174057000
N       2.892729000    -1.102798000    -0.331865000
C       4.212670000    -1.558197000    -0.611970000
Pt     -0.036192000    -0.053903000    -0.052172000
Cl     -0.077665000    -0.148384000    -2.366919000
H      -0.922701000    -0.015163000     4.860918000
H       0.355945000     1.218352000     4.728671000
H       0.787905000    -0.505461000     4.851080000
H      -4.335503000     2.565740000    -0.074926000
H      -4.979213000     0.913321000    -0.252385000
H      -4.315725000     1.767723000    -1.669010000
H       4.337240000    -2.559256000    -0.204969000
H       4.927552000    -0.878548000    -0.153359000
H       4.352874000    -1.574493000    -1.690719000
Cl      0.904114000     2.993303000     0.356620000
Cl      1.426819000     4.918747000     0.773498000