31
energy: -4424417.534000 kJ/mol; low freq (cm^-1): 18.76, 20.63, 22.08
C      -0.526420000     1.971035000    -0.089861000
N      -0.791679000     2.805932000     0.941873000
C      -1.080546000     4.088517000     0.510232000
C      -0.987752000     4.055396000    -0.839317000
N      -0.649285000     2.760577000    -1.171206000
C       0.334370000    -2.034906000    -0.058997000
N      -0.382073000    -3.039717000     0.481603000
C       0.180043000    -4.277777000     0.215146000
C       1.299668000    -4.034906000    -0.501575000
N       1.373532000    -2.659704000    -0.646662000
C       0.098705000     0.014563000     1.959120000
N      -0.873780000    -0.069605000     2.889986000
C      -0.363687000    -0.017623000     4.178407000
C       0.974715000     0.114180000     4.049233000
N       1.230741000     0.133640000     2.685638000
Pt     -0.086211000    -0.036282000    -0.042758000
I      -0.192817000    -0.186107000    -2.709993000
H      -0.798645000     2.510762000     1.901733000
H      -1.320427000     4.889704000     1.183565000
H      -1.130910000     4.824983000    -1.574198000
H      -0.526271000     2.385203000    -2.105011000
H      -1.273741000    -2.886173000     0.925441000
H      -0.259644000    -5.199023000     0.547755000
H       2.031357000    -4.702625000    -0.915224000
H       2.043816000    -2.169854000    -1.215382000
H      -1.844105000    -0.198379000     2.628458000
H      -0.985806000    -0.080055000     5.051439000
H       1.751044000     0.194052000     4.786792000
H       2.141264000     0.222340000     2.267713000
I      -3.141843000    -0.619744000     0.253736000
I      -5.696732000    -1.251000000     1.122348000