31
energy: -5605796.383000 kJ/mol; low freq (cm^-1): 11.8, 24.08, 26.48
C      -0.357599000     1.929205000     2.437821000
N      -0.929000000     2.737431000     3.362849000
C      -1.127856000     4.020023000     2.879007000
C      -0.655077000     4.016062000     1.611807000
N      -0.191747000     2.738641000     1.375702000
C       0.530614000    -2.059729000     2.525369000
N       1.461754000    -2.742582000     3.228509000
C       1.474414000    -4.088773000     2.898033000
C       0.505488000    -4.252320000     1.969366000
N      -0.054409000    -3.005710000     1.767447000
C      -0.041130000    -0.074333000     4.507498000
N      -0.820807000    -0.861186000     5.283073000
C      -0.647916000    -0.599472000     6.633487000
C       0.274488000     0.383363000     6.713298000
N       0.624979000     0.691246000     5.405573000
Pt      0.106453000    -0.063782000     2.535815000
Br      0.333475000    -0.104271000     0.032482000
H      -1.220695000     2.416728000     4.268531000
H      -1.579721000     4.799625000     3.462674000
H      -0.611104000     4.795883000     0.875025000
H       0.171108000     2.376441000     0.502758000
H       2.102288000    -2.299745000     3.863115000
H       2.157966000    -4.789814000     3.338171000
H       0.174186000    -5.128039000     1.443910000
H      -0.782620000    -2.783026000     1.099583000
H      -1.455552000    -1.539598000     4.897349000
H      -1.187017000    -1.123376000     7.400223000
H       0.705352000     0.879096000     7.562729000
H       1.317721000     1.366866000     5.130613000
Cl     -2.341840000    -1.422242000    -0.041419000
Cl     -4.126482000    -2.482386000     0.032327000