31
energy: -37858390511817.320312 kJ/mol; low freq (cm^-1) (cm^-1) (cm^-1): 17.46, 26.02, 27.84
C      -0.614487000     1.955456000    -0.090266000
N      -1.060310000     2.767864000     0.894115000
C      -1.438560000     4.007049000     0.406430000
C      -1.213734000     3.966420000    -0.927397000
N      -0.711608000     2.711116000    -1.197027000
C       0.562982000    -1.965723000    -0.089395000
N       0.686949000    -2.877348000     0.901574000
C       1.049762000    -4.121194000     0.413922000
C       1.159645000    -3.977355000    -0.927183000
N       0.860474000    -2.659874000    -1.200756000
C       0.020036000     0.007946000     1.957257000
N      -0.972170000    -0.337100000     2.805214000
C      -0.589074000    -0.203388000     4.130970000
C       0.688073000     0.238056000     4.113880000
N       1.037276000     0.359450000     2.776160000
Pt     -0.003099000     0.001950000    -0.029503000
Cl      0.070727000     0.024269000    -2.400415000
H      -1.140588000     2.482885000     1.853573000
H      -1.824428000     4.787130000     1.034971000
H      -1.365237000     4.707985000    -1.688925000
H      -0.469510000     2.328313000    -2.102734000
H       0.508513000    -2.672726000     1.868250000
H       1.193397000    -4.975916000     1.047425000
H       1.419298000    -4.685483000    -1.691361000
H       0.821413000    -2.214434000    -2.109483000
H      -1.875636000    -0.638185000     2.458370000
H      -1.246157000    -0.430065000     4.949608000
H       1.365374000     0.471883000     4.913755000
H       1.931660000     0.667918000     2.433216000
Br     -2.833374000    -0.775018000     0.110404000
Br     -5.109816000    -1.378841000     0.502704000