31
energy: -36450235858737.773438 kJ/mol; low freq (cm^-1) (cm^-1) (cm^-1): 13.28, 22.62, 24.43
C      -0.397099000     2.077903000     2.678414000
N       0.269455000     3.110055000     3.239584000
C      -0.348250000     4.325056000     2.982734000
C      -1.447616000     4.036180000     2.251294000
N      -1.457733000     2.662956000     2.090054000
C       0.500434000    -1.908496000     2.578570000
N       0.141008000    -2.890624000     3.439791000
C       0.556417000    -4.139674000     3.008818000
C       1.211951000    -3.931445000     1.844676000
N       1.167391000    -2.571347000     1.613873000
C      -0.075052000     0.034180000     4.651087000
N      -1.075133000     0.515479000     5.423417000
C      -0.833813000     0.316968000     6.773518000
C       0.360489000    -0.308220000     6.855845000
N       0.799622000    -0.475011000     5.550216000
Pt      0.076337000     0.092878000     2.669962000
I       0.249684000     0.271401000    -0.011504000
H       1.140079000     2.997353000     3.728368000
H       0.043486000     5.261756000     3.331444000
H      -2.206203000     4.673353000     1.837418000
H      -2.114908000     2.134014000     1.528742000
H      -0.419373000    -2.724113000     4.256496000
H       0.349283000    -5.042362000     3.551853000
H       1.693223000    -4.618915000     1.174872000
H       1.495400000    -2.097822000     0.783480000
H      -1.895379000     0.950557000     5.036418000
H      -1.519639000     0.629338000     7.538400000
H       0.925754000    -0.639908000     7.706332000
H       1.675575000    -0.887637000     5.278328000
Cl     -2.799103000     0.207205000     0.368428000
Cl     -4.862629000     0.293509000     0.799425000