31
energy: -5060313.328000 kJ/mol; low freq (cm^-1): 11.11, 17.92, 22.51
C      -0.421733000     2.011171000     2.637720000
N       0.261870000     3.071824000     3.118003000
C      -0.389874000     4.268068000     2.856565000
C      -1.527467000     3.937704000     2.205706000
N      -1.526608000     2.558968000     2.096837000
C       0.545413000    -1.960981000     2.604229000
N       0.191521000    -2.935512000     3.475914000
C       0.632507000    -4.183896000     3.069452000
C       1.298694000    -3.982997000     1.910155000
N       1.234381000    -2.627327000     1.657563000
C      -0.102885000    -0.004416000     4.639017000
N      -1.145000000     0.432521000     5.380854000
C      -0.925248000     0.263590000     6.738740000
C       0.297708000    -0.297065000     6.856775000
N       0.775769000    -0.456334000     5.563758000
Pt      0.085611000     0.033667000     2.662049000
I       0.278245000     0.179141000    -0.025069000
H       1.161689000     2.988637000     3.557435000
H       0.007030000     5.222151000     3.147522000
H      -2.320658000     4.548647000     1.817947000
H      -2.203922000     2.000376000     1.589371000
H      -0.381822000    -2.765982000     4.282944000
H       0.433814000    -5.081355000     3.624182000
H       1.799245000    -4.672514000     1.256809000
H       1.568302000    -2.161999000     0.825304000
H      -1.977778000     0.818405000     4.968878000
H      -1.643941000     0.549357000     7.483561000
H       0.859682000    -0.588326000     7.724078000
H       1.677430000    -0.827543000     5.317518000
Br     -2.805104000    -0.139494000     0.466816000
Br     -5.132765000    -0.179510000     1.049720000