31
energy: -4424412.849000 kJ/mol; low freq (cm^-1): 17.99, 19.54, 25.5
C      -0.147035000     2.107207000     2.620116000
N       0.735804000     3.112912000     2.788351000
C       0.136994000     4.356604000     2.647848000
C      -1.168409000     4.116424000     2.398009000
N      -1.314899000     2.739199000     2.397463000
C       0.595315000    -1.915654000     2.542329000
N       0.469238000    -2.843708000     3.520144000
C       0.802850000    -4.113552000     3.080764000
C       1.155106000    -3.976245000     1.782793000
N       1.023603000    -2.634406000     1.486965000
C      -0.308048000    -0.027014000     4.526741000
N      -1.561972000    -0.244881000     4.981274000
C      -1.611801000    -0.257474000     6.366164000
C      -0.348590000    -0.047966000     6.795834000
N       0.429750000     0.084773000     5.652569000
Pt      0.198732000     0.095873000     2.611727000
I       0.360640000     0.298754000    -0.096310000
H       1.718175000     2.956975000     2.931438000
H       0.682152000     5.277308000     2.734513000
H      -1.987772000     4.787505000     2.222678000
H      -2.158010000     2.234760000     2.165056000
H       0.151961000    -2.626119000     4.447478000
H       0.760635000    -4.979267000     3.714227000
H       1.482501000    -4.700820000     1.061291000
H       1.170602000    -2.202867000     0.584042000
H      -2.361503000    -0.372517000     4.372500000
H      -2.525671000    -0.410726000     6.908620000
H       0.059370000     0.018778000     7.786712000
H       1.420296000     0.256116000     5.637732000
I      -2.753502000    -0.348656000     1.070121000
I      -4.890288000    -0.722336000     2.821165000