31
energy: -4856192.670000 kJ/mol; low freq (cm^-1): 14.74, 23.91, 28.93
C      -0.595560000     1.969879000    -0.082823000
N      -1.008436000     2.794349000     0.906345000
C      -1.396307000     4.030324000     0.418048000
C      -1.213201000     3.975175000    -0.921643000
N      -0.725059000     2.714987000    -1.193763000
C       0.578037000    -1.950793000    -0.082704000
N       0.690012000    -2.864925000     0.907475000
C       1.040589000    -4.112140000     0.419575000
C       1.156359000    -3.968019000    -0.921002000
N       0.872448000    -2.646924000    -1.193938000
C       0.030196000     0.020528000     1.962903000
N      -0.975925000    -0.291572000     2.806881000
C      -0.592910000    -0.175702000     4.134326000
C       0.698487000     0.222893000     4.122852000
N       1.056148000     0.335891000     2.786525000
Pt      0.015781000     0.016995000    -0.022500000
Cl      0.081316000     0.036657000    -2.395742000
H      -1.054965000     2.521565000     1.871513000
H      -1.758765000     4.818594000     1.050288000
H      -1.385976000     4.709385000    -1.685765000
H      -0.504312000     2.324594000    -2.101715000
H       0.507384000    -2.660356000     1.873347000
H       1.172928000    -4.969006000     1.052617000
H       1.410399000    -4.678100000    -1.685232000
H       0.839008000    -2.200937000    -2.102495000
H      -1.887129000    -0.570639000     2.458155000
H      -1.259596000    -0.382857000     4.950332000
H       1.380798000     0.431935000     4.925345000
H       1.961473000     0.615081000     2.447343000
I      -2.998061000    -0.896974000    -0.009052000
I      -5.602032000    -1.697236000     0.421852000