31
energy: -5492095.876000 kJ/mol; low freq (cm^-1): 17.46, 26.64, 28.06
C      -0.492366000     2.075899000     2.187311000
N      -0.978089000     2.876749000     3.162311000
C      -1.274364000     4.142987000     2.687563000
C      -0.956303000     4.131184000     1.372275000
N      -0.482902000     2.865415000     1.100013000
C       0.565559000    -1.878946000     2.148765000
N       0.555415000    -2.831215000     3.108574000
C       0.927275000    -4.068011000     2.610001000
C       1.182912000    -3.877422000     1.294823000
N       0.956889000    -2.540401000     1.046580000
C      -0.089364000     0.044088000     4.212365000
N      -1.169126000    -0.254386000     4.965519000
C      -0.886960000    -0.193252000     6.321460000
C       0.414847000     0.155619000     6.422346000
N       0.879684000     0.294494000     5.121987000
Pt      0.052680000     0.102276000     2.231371000
Cl      0.324610000     0.199231000    -0.123515000
H      -1.133450000     2.569471000     4.105500000
H      -1.675547000     4.919384000     3.311051000
H      -1.026489000     4.898962000     0.625011000
H      -0.186174000     2.499482000     0.203484000
H       0.279245000    -2.657901000     4.058244000
H       0.975256000    -4.950863000     3.218914000
H       1.498642000    -4.565092000     0.533079000
H       1.023745000    -2.060670000     0.157202000
H      -2.057415000    -0.487923000     4.536923000
H      -1.622315000    -0.399060000     7.076560000
H       1.039458000     0.314143000     7.281367000
H       1.817972000     0.550054000     4.863198000
Br     -2.782416000    -0.643987000     2.106617000
Br     -5.090558000    -1.246084000     2.202826000