16
energy: -6526702.925000 kJ/mol; low freq (cm^-1): 16.14, 21.84, 30.77
P      -1.605687000     1.370512000     2.037161000
P       1.857485000    -1.683543000     2.174676000
P       0.265644000     0.150599000     4.580302000
Pt      0.134859000    -0.140391000     2.336853000
Br     -0.010366000    -0.408061000    -0.128327000
H      -2.148158000     2.059178000     3.139869000
H      -1.281753000     2.421643000     1.167053000
H      -2.753636000     0.816735000     1.451097000
H       2.541811000    -2.089593000     3.336888000
H       1.484815000    -2.913694000     1.612493000
H       2.908421000    -1.265208000     1.345293000
H       0.684532000     1.423555000     5.010225000
H       1.134699000    -0.678771000     5.311396000
H      -0.926859000    -0.001289000     5.311516000
Cl      2.077513000     2.052231000     0.691725000
Cl      3.311667000     3.552672000     1.312334000