16
energy: -42798331539592.953125 kJ/mol; low freq (cm^-1) (cm^-1) (cm^-1): 15.31, 21.83, 30.17
P      -1.925540000     0.970235000     2.263530000
P       2.160386000    -1.192559000     2.314996000
P       0.299267000     0.237520000     4.738121000
Pt      0.122165000    -0.091071000     2.492660000
I      -0.025780000    -0.441059000    -0.146792000
H      -2.954888000     0.180637000     1.729720000
H      -2.543913000     1.505539000     3.411393000
H      -1.907060000     2.078387000     1.403941000
H       2.940572000    -1.386690000     3.472964000
H       2.090503000    -2.496602000     1.802827000
H       3.074708000    -0.565986000     1.456012000
H       1.292359000     1.148182000     5.145231000
H       0.625420000    -0.881995000     5.525713000
H      -0.818848000     0.734023000     5.432181000
Cl      1.582655000     2.419746000     0.840458000
Cl      2.556873000     4.073669000     1.556070000