16
energy: -42798337082241.789062 kJ/mol; low freq (cm^-1) (cm^-1) (cm^-1): 13.01, 20.78, 49.56
P      -2.064937000     0.628835000    -0.247050000
P       2.362292000    -0.710355000    -0.296526000
P       0.120849000    -0.216223000     2.214782000
Pt      0.161194000    -0.006698000    -0.063718000
I       0.208122000     0.249810000    -2.704050000
H      -2.839105000    -0.240683000    -1.028517000
H      -2.841449000     0.727215000     0.925161000
H      -2.290607000     1.875853000    -0.848064000
H       3.083977000    -1.069972000     0.859445000
H       2.506015000    -1.857333000    -1.090109000
H       3.232274000     0.204276000    -0.907986000
H       0.436105000     0.936794000     2.958907000
H       0.993280000    -1.158236000     2.786858000
H      -1.101626000    -0.592253000     2.797891000
Cl     -0.645435000    -2.965336000     0.259098000
Cl     -1.133023000    -4.918701000     0.643908000