16
energy: -36846677238296.671875 kJ/mol; low freq (cm^-1) (cm^-1) (cm^-1): 12.1, 20.01, 28.7
P      -2.201018000     0.675325000    -0.166331000
P       2.231057000    -0.645721000    -0.213665000
P       0.037980000     0.097414000     2.279281000
Pt      0.031147000     0.052967000     0.004193000
I       0.017798000     0.111661000    -2.668988000
H      -3.034149000    -0.266745000    -0.789201000
H      -2.924927000     0.952084000     1.010953000
H      -2.424654000     1.836939000    -0.918817000
H       3.004865000    -0.812764000     0.952190000
H       2.404633000    -1.886870000    -0.845417000
H       3.044109000     0.204854000    -0.976346000
H       1.175020000    -0.384128000     2.952650000
H      -0.981693000    -0.605331000     2.947709000
H      -0.093232000     1.375921000     2.852119000
I       0.922774000     3.239358000    -0.901908000
I       1.489793000     5.339381000     0.741608000