16
energy: -39038528672233.570312 kJ/mol; low freq (cm^-1) (cm^-1) (cm^-1): 10.67, 12.94, 17.71
P      -1.928373000     1.272404000    -0.304295000
P       1.995551000    -1.171907000    -0.277836000
P      -0.145836000    -0.202843000     2.190348000
Pt      0.035119000     0.055058000    -0.064655000
Br      0.183807000     0.266561000    -2.524747000
H      -2.712980000     1.565361000     0.828118000
H      -1.762977000     2.539890000    -0.882710000
H      -2.860833000     0.658883000    -1.153086000
H       2.589217000    -1.741777000     0.864881000
H       1.863153000    -2.282935000    -1.122894000
H       3.068296000    -0.469419000    -0.847757000
H       0.392183000     0.808867000     3.009684000
H       0.450751000    -1.348400000     2.743314000
H      -1.451136000    -0.301452000     2.700699000
I      -1.721867000    -2.863499000    -0.076764000
I      -2.986119000    -5.034124000     0.963252000