16
energy: -5777074.069000 kJ/mol; low freq (cm^-1): 11.7, 12.34, 26.95
P       0.085849000     0.235233000     2.177208000
P       1.838920000    -1.337122000    -0.287286000
P      -1.963551000     1.289681000    -0.339165000
Pt     -0.070966000    -0.031558000    -0.072431000
Cl     -0.206969000    -0.267445000    -2.396526000
H      -0.441103000     1.423424000     2.710450000
H      -0.545708000    -0.734756000     2.979872000
H       1.381400000     0.242448000     2.720360000
H       1.614789000    -2.599278000    -0.858147000
H       2.616596000    -1.651583000     0.842973000
H       2.786401000    -0.764564000    -1.148508000
H      -2.537686000     1.938174000     0.770173000
H      -3.062160000     0.617911000    -0.896995000
H      -1.755696000     2.351479000    -1.230954000
I       1.797652000     2.816347000    -0.018430000
I       3.132335000     4.965045000     0.976882000