16
energy: -6640481.655000 kJ/mol; low freq (cm^-1): 10.21, 26.81, 58.04
P      -0.059702000     0.253153000     2.191718000
P       1.875037000    -1.071517000    -0.291984000
P      -2.147103000     1.201561000    -0.339995000
Pt     -0.152455000     0.041232000    -0.066438000
Cl     -0.258736000    -0.188429000    -2.390449000
H      -0.671141000     1.387767000     2.751440000
H      -0.656312000    -0.780405000     2.938446000
H       1.217090000     0.316822000     2.774972000
H       1.771909000    -2.337164000    -0.888474000
H       2.672589000    -1.334016000     0.837784000
H       2.766702000    -0.393688000    -1.135708000
H      -2.827373000     1.726901000     0.774699000
H      -3.151297000     0.470344000    -0.991578000
H      -1.996489000     2.331724000    -1.156585000
Cl      1.385610000     2.717784000     0.275984000
Cl      2.385379000     4.464021000     0.645642000