16
energy: -43421947515249.437500 kJ/mol; low freq (cm^-1) (cm^-1) (cm^-1): 20.83, 22.1, 32.21
P      -1.801515000     1.327997000     2.093600000
P       1.903821000    -1.436243000     2.105721000
P       0.224206000     0.231965000     4.564079000
Pt      0.074437000    -0.025751000     2.319372000
Br     -0.092661000    -0.252291000    -0.153586000
H      -2.367872000     1.950616000     3.223052000
H      -1.602925000     2.414653000     1.229304000
H      -2.914394000     0.680087000     1.536473000
H       2.652097000    -1.779632000     3.248258000
H       1.605371000    -2.696609000     1.565800000
H       2.892513000    -0.948512000     1.238817000
H       0.516955000     1.535005000     5.007379000
H       1.194681000    -0.513830000     5.256357000
H      -0.926604000    -0.059064000     5.319383000
Br      1.856156000     2.288616000     0.697914000
Br      3.233154000     4.025026000     1.438631000