16
energy: -6299198.795000 kJ/mol; low freq (cm^-1): 14.52, 22.71, 34.11
P      -1.924938000     1.342408000    -0.325905000
P       1.871584000    -1.296954000    -0.287460000
P       0.061172000     0.189161000     2.193188000
Pt     -0.048840000    -0.006513000    -0.074024000
Br     -0.167360000    -0.207519000    -2.535001000
H      -2.517652000     1.929684000     0.808526000
H      -1.684853000     2.456734000    -1.142140000
H      -3.019857000     0.722504000    -0.946315000
H       2.610501000    -1.643875000     0.860147000
H       1.676077000    -2.542242000    -0.902989000
H       2.847277000    -0.693098000    -1.093458000
H      -0.418596000     1.388910000     2.744619000
H       1.338042000     0.111708000     2.774304000
H      -0.645409000    -0.763142000     2.953166000
Br      1.677766000     2.644017000     0.244667000
Br      2.863081000     4.590752000     0.774225000