16
energy: -44990210168787.632812 kJ/mol; low freq (cm^-1) (cm^-1) (cm^-1): 12.75, 23.35, 54.19
P      -2.097619000     1.252761000    -0.329251000
P       1.877325000    -1.103927000    -0.277302000
P      -0.055137000     0.214944000     2.200789000
Pt     -0.132398000     0.042818000    -0.068111000
Br     -0.224953000    -0.163452000    -2.529889000
H      -2.738814000     1.792585000     0.802481000
H      -1.936076000     2.383607000    -1.142084000
H      -3.140374000     0.556039000    -0.957735000
H       2.633461000    -1.408651000     0.871352000
H       1.778615000    -2.353813000    -0.906287000
H       2.813490000    -0.424115000    -1.069807000
H      -0.710814000     1.312360000     2.784442000
H       1.218084000     0.315920000     2.787222000
H      -0.610011000    -0.856474000     2.926218000
Cl      1.305181000     2.755191000     0.300885000
Cl      2.215577000     4.555309000     0.652628000