16
energy: -5777073.849000 kJ/mol; low freq (cm^-1): 10.09, 19.12, 27.2
P       0.185132000     0.381948000     4.390851000
P       1.881762000    -1.297360000     1.948951000
P      -1.999937000     1.209577000     1.943085000
Pt     -0.015385000     0.018916000     2.170075000
Cl     -0.219546000    -0.294634000    -0.155049000
H       0.374128000     1.724292000     4.766988000
H      -0.904249000     0.022092000     5.205474000
H       1.244990000    -0.241502000     5.072871000
H       1.620781000    -2.605159000     1.510883000
H       2.716435000    -1.522099000     3.059999000
H       2.784354000    -0.819570000     0.987910000
H      -2.559540000     1.890256000     3.041102000
H      -3.080646000     0.426674000     1.508021000
H      -1.929441000     2.218488000     0.972034000
I       1.626921000     2.618062000     0.617122000
I       2.944347000     4.763453000     1.630694000