16
energy: -5981226.675000 kJ/mol; low freq (cm^-1): 20.46, 22.08, 30.59
P      -2.408367000     0.606842000     2.326817000
P       2.054443000    -0.610820000     2.254895000
P      -0.005234000     0.390096000     4.723204000
Pt     -0.166200000     0.037276000     2.482094000
I      -0.306212000    -0.321265000    -0.161311000
H      -3.249408000    -0.403228000     1.835785000
H      -3.090149000     0.998643000     3.496216000
H      -2.674135000     1.680241000     1.464018000
H       2.890474000    -0.606307000     3.389569000
H       2.247185000    -1.914243000     1.772415000
H       2.791048000     0.170463000     1.353088000
H       0.757704000     1.509349000     5.104988000
H       0.597429000    -0.621879000     5.492790000
H      -1.188739000     0.609276000     5.450694000
Br      0.627419000     2.799922000     0.830586000
Br      1.310669000     4.902753000     1.623176000