16
energy: -41230083075576.031250 kJ/mol; low freq (cm^-1) (cm^-1) (cm^-1): 14.4, 19.19, 28.33
P      -2.105348000     0.798193000    -0.254011000
P       2.227330000    -0.829481000    -0.299106000
P       0.010006000    -0.228721000     2.204739000
Pt      0.073428000     0.013187000    -0.072216000
I       0.138672000     0.265552000    -2.711753000
H      -2.928215000     0.002067000    -1.062979000
H      -2.880446000     0.916037000     0.917076000
H      -2.243243000     2.073382000    -0.822066000
H       2.915053000    -1.249467000     0.857093000
H       2.305364000    -1.971500000    -1.108662000
H       3.158135000     0.038215000    -0.889517000
H       0.487655000     0.845468000     2.980567000
H       0.743172000    -1.300394000     2.741753000
H      -1.251620000    -0.444708000     2.784782000
Br     -1.045184000    -2.949635000     0.184759000
Br     -1.828015000    -5.065831000     0.809568000