16
energy: -6640479.116000 kJ/mol; low freq (cm^-1): 16.41, 20.26, 26.71
P      -0.283939000    -0.118316000     4.456984000
P       1.590733000    -1.395186000     1.893246000
P      -1.840249000     1.692692000     2.045332000
Pt     -0.130447000     0.126130000     2.215349000
Cl     -0.010821000     0.372441000    -0.117541000
H      -0.279401000     1.057740000     5.229124000
H      -1.453976000    -0.744619000     4.925444000
H       0.705566000    -0.872063000     5.112735000
H       1.241417000    -2.441394000     1.026668000
H       2.148532000    -2.083614000     2.987154000
H       2.725676000    -0.843245000     1.280360000
H      -2.532793000     2.136811000     3.187885000
H      -2.885345000     1.269290000     1.211116000
H      -1.436581000     2.901631000     1.459004000
Cl     -2.144201000    -2.012390000     0.557194000
Cl     -3.411093000    -3.468376000     1.200957000