16
energy: -39038533539171.546875 kJ/mol; low freq (cm^-1) (cm^-1) (cm^-1): 12.21, 20.03, 26.59
P      -1.998001000     1.211770000     2.076093000
P       1.883837000    -1.297561000     2.087176000
P       0.192010000     0.398929000     4.513545000
Pt     -0.015577000     0.016538000     2.290480000
Br     -0.235155000    -0.331973000    -0.165982000
H      -2.541540000     1.880631000     3.190325000
H      -1.938873000     2.236142000     1.120545000
H      -3.091031000     0.442950000     1.646982000
H       2.697174000    -1.516360000     3.215995000
H       1.640162000    -2.609036000     1.650610000
H       2.808131000    -0.821604000     1.146010000
H       0.373711000     1.745442000     4.878278000
H       1.258567000    -0.212181000     5.196537000
H      -0.891860000     0.039420000     5.335833000
I       1.625791000     2.613688000     0.744678000
I       2.944586000     4.761654000     1.763450000