16
energy: -6412975.282000 kJ/mol; low freq (cm^-1): 13.6, 26.18, 39.93
P       0.071904000     0.207474000     2.186585000
P       1.863495000    -1.305700000    -0.298557000
P      -1.934371000     1.329858000    -0.338808000
Pt     -0.054682000    -0.012508000    -0.071056000
Cl     -0.188692000    -0.235260000    -2.394569000
H      -0.409210000     1.410336000     2.729435000
H      -0.624745000    -0.742257000     2.958574000
H       1.353509000     0.141628000     2.758171000
H       1.644546000    -2.557053000    -0.893962000
H       2.635441000    -1.637602000     0.830601000
H       2.810216000    -0.710249000    -1.144474000
H      -2.531215000     1.947205000     0.776307000
H      -3.021806000     0.683971000    -0.946013000
H      -1.691112000     2.417284000    -1.189799000
Br      1.680461000     2.636803000     0.228890000
Br      2.872426000     4.583592000     0.738149000