16
energy: -5345327.118000 kJ/mol; low freq (cm^-1): 10.04, 20.11, 27.1
P      -2.102622000     0.842475000     2.281936000
P       2.117665000    -1.050261000     2.263056000
P       0.288237000     0.434434000     4.666963000
Pt      0.037905000    -0.031101000     2.453643000
I      -0.181124000    -0.502384000    -0.168881000
H      -3.095611000    -0.075243000     1.905838000
H      -2.681818000     1.430749000     3.424055000
H      -2.246677000     1.861045000     1.329106000
H       2.959887000    -1.102211000     3.392185000
H       2.085289000    -2.400164000     1.880488000
H       2.963518000    -0.474818000     1.304313000
H       1.247744000     1.419726000     4.964481000
H       0.706686000    -0.610892000     5.511082000
H      -0.823907000     0.919402000     5.378567000
I       1.328776000     2.717620000     0.859846000
I       2.435969000     4.936537000     1.992345000