16
energy: -6412973.254000 kJ/mol; low freq (cm^-1): 20.01, 21.61, 27.92
P      -0.244617000    -0.187528000     4.441234000
P       1.785692000    -1.352308000     1.951229000
P      -1.887474000     1.452989000     1.975246000
Pt     -0.069577000     0.018918000     2.198554000
Cl      0.067534000     0.216129000    -0.142323000
H      -0.364805000     0.999315000     5.186998000
H      -1.362543000    -0.910028000     4.897750000
H       0.796021000    -0.832849000     5.132365000
H       1.558933000    -2.436958000     1.091318000
H       2.364017000    -1.973106000     3.074445000
H       2.889415000    -0.711982000     1.367469000
H      -2.644391000     1.837377000     3.098290000
H      -2.871319000     0.957540000     1.107376000
H      -1.558028000     2.693592000     1.408199000
Br     -1.910572000    -2.279247000     0.580002000
Br     -3.317643000    -3.989782000     1.302859000