43
energy: -7455634.954000 kJ/mol; low freq (cm^-1): 14.59, 23.45, 23.64
C      -1.184552000    -2.566456000     2.732722000
C       0.038673000    -1.717628000     3.083892000
C       1.347698000    -2.376797000     2.645555000
P      -0.113598000    -0.043055000     2.320053000
C       2.212896000     2.909993000    -0.410680000
C       2.705826000     1.638278000    -1.104756000
C       4.225148000     1.597889000    -1.268232000
P       2.103433000     0.163352000    -0.179381000
C      -3.037192000     2.525960000    -0.219825000
C      -3.388698000     1.192893000    -0.884229000
C      -4.893903000     0.933409000    -0.942776000
P      -2.516677000    -0.174558000    -0.009657000
Pt     -0.199164000    -0.026422000     0.068282000
Br     -0.281997000    -0.191480000    -2.426528000
H      -2.115515000    -2.098290000     3.053745000
H      -1.111627000    -3.532105000     3.231944000
H      -1.234384000    -2.754175000     1.660383000
H       0.062177000    -1.536576000     4.161172000
H       1.351272000    -2.559920000     1.571349000
H       1.453216000    -3.340184000     3.143274000
H       2.218422000    -1.773890000     2.904839000
H       0.938154000     0.696846000     2.895607000
H      -1.216514000     0.537612000     2.976794000
H       2.533253000     3.782552000    -0.979197000
H       2.628817000     3.001639000     0.594531000
H       1.125912000     2.933990000    -0.339313000
H       2.223619000     1.550640000    -2.079783000
H       4.548379000     2.455736000    -1.858640000
H       4.557157000     0.696387000    -1.782066000
H       4.731135000     1.651180000    -0.303070000
H       2.867995000     0.189439000     1.006275000
H       2.667330000    -0.951091000    -0.824012000
H      -3.518859000     3.340252000    -0.760307000
H      -1.962722000     2.706888000    -0.224316000
H      -3.390808000     2.561922000     0.812397000
H      -2.967266000     1.170276000    -1.890520000
H      -5.376818000     1.731933000    -1.506800000
H      -5.127185000    -0.009843000    -1.435542000
H      -5.334942000     0.919877000     0.055056000
H      -2.958456000    -1.362849000    -0.616587000
H      -3.190593000    -0.251058000     1.227702000
Cl      0.010569000    -3.136755000    -1.136099000
Cl      0.211747000    -4.970755000    -0.246551000