43
energy: -45441914257326.406250 kJ/mol; low freq (cm^-1) (cm^-1) (cm^-1): 15.72, 22.22, 22.67
C      -0.891185000    -2.649937000     2.745044000
C       0.258025000    -1.705271000     3.100256000
C       1.627123000    -2.289297000     2.748646000
P       0.025905000    -0.078060000     2.257365000
C       2.215762000     3.014562000    -0.283088000
C       2.832786000     1.812538000    -1.001646000
C       4.354571000     1.901804000    -1.115109000
P       2.324658000     0.260555000    -0.148457000
C      -2.950096000     2.257354000    -0.320923000
C      -3.191117000     0.922894000    -1.030147000
C      -4.673597000     0.569792000    -1.149870000
P      -2.263966000    -0.410429000    -0.159813000
Pt      0.036080000    -0.115667000     0.004197000
Br      0.066242000    -0.267246000    -2.505054000
H      -1.861731000    -2.236642000     3.021245000
H      -0.766226000    -3.589834000     3.281314000
H      -0.893834000    -2.879181000     1.679972000
H       0.222912000    -1.470962000     4.167109000
H       1.696552000    -2.508038000     1.683611000
H       1.769632000    -3.226859000     3.284665000
H       2.441711000    -1.620134000     3.027413000
H       0.996946000     0.755771000     2.845978000
H      -1.142379000     0.448372000     2.842736000
H       2.480182000     3.930139000    -0.811293000
H       2.592133000     3.103846000     0.737826000
H       1.128815000     2.947383000    -0.246808000
H       2.390478000     1.721693000    -1.995338000
H       4.624394000     2.802961000    -1.666537000
H       4.775579000     1.048479000    -1.645705000
H       4.823925000     1.962480000    -0.132047000
H       3.041559000     0.306348000     1.065829000
H       3.000810000    -0.779514000    -0.808551000
H      -3.463110000     3.054015000    -0.858818000
H      -1.889927000     2.505616000    -0.279994000
H      -3.342507000     2.242984000     0.697752000
H      -2.735068000     0.954717000    -2.021239000
H      -5.187797000     1.350719000    -1.710859000
H      -4.828182000    -0.372892000    -1.673689000
H      -5.146617000     0.500950000    -0.169102000
H      -2.609964000    -1.606424000    -0.811658000
H      -2.971082000    -0.561594000     1.051636000
I       0.516581000    -3.362738000    -1.179345000
I       0.860773000    -5.692269000     0.199202000