43
energy: -7228132.557000 kJ/mol; low freq (cm^-1): 15.71, 22.65, 23.29
C      -0.962750000    -2.757917000     4.977236000
C       0.194087000    -1.849564000     5.397401000
C       1.556152000    -2.418490000     4.996005000
P      -0.027873000    -0.165754000     4.672357000
C       2.198996000     3.027303000     2.180139000
C       2.811064000     1.825521000     1.456876000
C       4.334840000     1.899734000     1.360130000
P       2.278006000     0.271540000     2.290943000
C      -2.979298000     2.319108000     2.110168000
C      -3.229834000     0.995918000     1.383292000
C      -4.714944000     0.656999000     1.255357000
P      -2.316802000    -0.356365000     2.239254000
Pt     -0.015545000    -0.082311000     2.421428000
Br      0.027198000    -0.167769000    -0.085915000
H      -1.931000000    -2.354199000     5.274717000
H      -0.849973000    -3.731354000     5.453200000
H      -0.961001000    -2.918743000     3.899469000
H       0.165210000    -1.694820000     6.478758000
H       1.612345000    -2.572571000     3.918822000
H       1.698874000    -3.387373000     5.473199000
H       2.378394000    -1.772798000     5.305945000
H       0.950181000     0.620354000     5.312636000
H      -1.192533000     0.328663000     5.291801000
H       2.479330000     3.944733000     1.663473000
H       2.564726000     3.102922000     3.205968000
H       1.111058000     2.971849000     2.203684000
H       2.378301000     1.748221000     0.457966000
H       4.619416000     2.802822000     0.819389000
H       4.752620000     1.046806000     0.826360000
H       4.794544000     1.947261000     2.348446000
H       2.986081000     0.296493000     3.510937000
H       2.945585000    -0.771157000     1.625756000
H      -3.484397000     3.126650000     1.581073000
H      -1.917252000     2.558096000     2.156761000
H      -3.374236000     2.295172000     3.127650000
H      -2.770893000     1.036385000     0.393923000
H      -5.220568000     1.449378000     0.702692000
H      -4.876361000    -0.277667000     0.719379000
H      -5.191333000     0.580331000     2.233893000
H      -2.665321000    -1.540728000     1.567626000
H      -3.032011000    -0.520747000     3.444215000
Br      0.406162000    -3.115002000     1.084986000
Br      0.664668000    -5.239953000     2.050878000