43
energy: -49825326549300.531250 kJ/mol; low freq (cm^-1) (cm^-1) (cm^-1): 15.86, 22.53, 23.16
C      -0.893163000    -2.650268000     2.734311000
C       0.259682000    -1.717079000     3.108652000
C       1.623835000    -2.295881000     2.729015000
P       0.026282000    -0.069541000     2.307337000
C       2.224622000     3.023219000    -0.333940000
C       2.845941000     1.794260000    -1.001447000
C       4.368989000     1.875892000    -1.102924000
P       2.325717000     0.276244000    -0.096069000
C      -2.960890000     2.260576000    -0.360698000
C      -3.193121000     0.902529000    -1.026783000
C      -4.673448000     0.538308000    -1.139919000
P      -2.263170000    -0.396945000    -0.109679000
Pt      0.035437000    -0.090038000     0.055053000
Br      0.075100000    -0.287582000    -2.446220000
H      -1.862650000    -2.240210000     3.018789000
H      -0.771613000    -3.601232000     3.251587000
H      -0.895541000    -2.858205000     1.664821000
H       0.232979000    -1.512885000     4.181820000
H       1.678541000    -2.495042000     1.659253000
H       1.771901000    -3.243530000     3.245532000
H       2.443373000    -1.633836000     3.010161000
H       1.000250000     0.750990000     2.909528000
H      -1.140329000     0.445762000     2.905692000
H       2.497397000     3.918059000    -0.892557000
H       2.590094000     3.148971000     0.687061000
H       1.137177000     2.960172000    -0.306998000
H       2.413194000     1.667388000    -1.995297000
H       4.646131000     2.755315000    -1.684954000
H       4.793194000     1.002586000    -1.597217000
H       4.828854000     1.972468000    -0.118267000
H       3.035237000     0.362374000     1.120340000
H       3.000705000    -0.790449000    -0.714035000
H      -3.476247000     3.036493000    -0.925971000
H      -1.902152000     2.515553000    -0.324719000
H      -3.356362000     2.277449000     0.656717000
H      -2.733599000     0.903830000    -2.016703000
H      -5.189175000     1.298186000    -1.727764000
H      -4.821730000    -0.421572000    -1.633448000
H      -5.149771000     0.499168000    -0.159121000
H      -2.598678000    -1.615510000    -0.724410000
H      -2.975388000    -0.513309000     1.102597000
Br      0.477712000    -3.178803000    -1.143198000
Br      0.753077000    -5.238904000    -0.049224000