34
energy: -6918660.242000 kJ/mol; low freq (cm^-1): 20.59, 23.18, 25.65
C       1.362270000    -3.004482000     1.455655000
P      -0.135118000    -2.322743000     2.243283000
C      -1.558703000    -3.069407000     1.385992000
C       1.782625000     2.781100000     1.422008000
P       0.220541000     2.320812000     2.242947000
C      -1.097409000     3.272194000     1.420888000
C      -1.817655000    -0.624826000     5.223992000
P      -0.217369000     0.011036000     4.619478000
C       1.077548000    -0.874734000     5.552777000
Pt     -0.076812000     0.012549000     2.371547000
Br     -0.197673000     0.019965000    -0.142523000
H       2.244064000    -2.689434000     2.009679000
H       1.423842000    -2.609250000     0.443846000
H       1.315275000    -4.091754000     1.427126000
H      -0.155791000    -2.985873000     3.488429000
H      -1.448905000    -4.152360000     1.364081000
H      -1.597629000    -2.678062000     0.372281000
H      -2.479171000    -2.800269000     1.898111000
H       1.759873000     2.396206000     0.404690000
H       2.620845000     2.331344000     1.949931000
H       1.897218000     3.863700000     1.406685000
H       0.323508000     2.951282000     3.500988000
H      -1.213254000     2.898658000     0.406136000
H      -2.035959000     3.134927000     1.952303000
H      -0.834206000     4.328484000     1.400097000
H      -1.910868000    -1.677322000     4.962093000
H      -2.627570000    -0.077601000     4.745127000
H      -1.887066000    -0.517588000     6.305427000
H      -0.160681000     1.299848000     5.186240000
H       1.076056000    -1.927392000     5.277513000
H       2.050453000    -0.451332000     5.311946000
H       0.897011000    -0.786211000     6.623116000
Br     -3.166531000     0.213840000     1.242057000
Br     -5.181227000     0.276630000     2.443156000