34
energy: -6282759.478000 kJ/mol; low freq (cm^-1): 4.62, 17.92, 22.88
C       1.234971000    -3.009339000    -0.955953000
P      -0.264006000    -2.326850000    -0.172195000
C      -1.689232000    -3.048156000    -1.045941000
C       1.743485000     2.743537000    -0.886368000
P       0.121606000     2.320276000    -0.166781000
C      -1.117984000     3.280255000    -1.092407000
C      -1.543817000    -0.797965000     3.078635000
P      -0.131401000    -0.007363000     2.239544000
C       1.366108000    -0.758760000     2.968301000
Pt     -0.185609000     0.008336000    -0.027813000
Br     -0.261967000     0.013770000    -2.523970000
H       2.115817000    -2.701773000    -0.396009000
H       1.303171000    -2.608226000    -1.964855000
H       1.183392000    -4.096298000    -0.989773000
H      -0.293867000    -2.997321000     1.068900000
H      -1.577220000    -4.129302000    -1.107697000
H      -1.734005000    -2.619411000    -2.044461000
H      -2.605729000    -2.799550000    -0.516345000
H       1.782276000     2.339866000    -1.896023000
H       2.538996000     2.293107000    -0.296431000
H       1.875113000     3.824000000    -0.913188000
H       0.147948000     2.963761000     1.088658000
H      -1.180673000     2.882507000    -2.102591000
H      -2.088865000     3.181865000    -0.613501000
H      -0.822605000     4.327853000    -1.120178000
H      -1.586145000    -1.851702000     2.810077000
H      -2.465513000    -0.320330000     2.755709000
H      -1.433735000    -0.707003000     4.158124000
H      -0.128117000     1.285069000     2.800325000
H       1.419927000    -1.808291000     2.684015000
H       2.251150000    -0.249987000     2.592201000
H       1.338123000    -0.685445000     4.054403000
I      -3.432253000     0.319673000    -0.203831000
I      -6.014213000     0.544943000     0.667594000