34
energy: -7259942.512000 kJ/mol; low freq (cm^-1): 8.43, 27.28, 33.64
C       0.203438000    -3.389963000     1.257077000
P      -0.835529000    -2.164395000     2.114431000
C      -2.453942000    -2.177416000     1.275587000
C       2.411459000     2.402705000     1.239281000
P       0.830906000     2.181633000     2.117189000
C      -0.380896000     3.266636000     1.293429000
C      -0.907354000     1.199136000     5.377661000
P       0.132719000    -0.034291000     4.522989000
C       1.810065000     0.147326000     5.220296000
Pt      0.066087000    -0.022209000     2.276131000
Cl      0.112107000    -0.035348000    -0.099583000
H       1.145103000    -3.510484000     1.787133000
H       0.410923000    -3.021082000     0.255192000
H      -0.315611000    -4.345439000     1.202498000
H      -1.105204000    -2.780751000     3.354610000
H      -2.837965000    -3.193997000     1.209148000
H      -2.320665000    -1.764262000     0.277947000
H      -3.158024000    -1.555452000     1.824308000
H       2.309473000     1.980882000     0.242131000
H       3.202037000     1.871107000     1.763319000
H       2.656549000     3.461396000     1.173854000
H       1.062620000     2.841526000     3.342657000
H      -0.573494000     2.863162000     0.301511000
H      -1.311420000     3.273699000     1.857273000
H       0.007557000     4.280513000     1.214060000
H      -1.945919000     1.064689000     5.082518000
H      -0.591537000     2.202017000     5.096770000
H      -0.818287000     1.086469000     6.457137000
H      -0.306625000    -1.243797000     5.097578000
H       2.457784000    -0.623081000     4.806905000
H       1.783069000     0.060962000     6.305471000
H       2.212489000     1.121706000     4.949070000
Cl      2.954088000    -1.109258000     0.879306000
Cl      4.755023000    -1.756443000     1.588091000