34
energy: -7146164.026000 kJ/mol; low freq (cm^-1): 11.2, 27.84, 35.99
C       1.314373000    -3.057271000     1.464254000
P      -0.152876000    -2.326188000     2.263372000
C      -1.611014000    -3.011796000     1.412925000
C       1.741911000     2.834644000     1.444110000
P       0.195983000     2.319048000     2.262014000
C      -1.155751000     3.216487000     1.433481000
C      -1.731115000    -0.652111000     5.306245000
P      -0.158182000     0.000532000     4.648072000
C       1.171760000    -0.878524000     5.538305000
Pt     -0.048104000     0.005407000     2.397604000
Br     -0.092871000     0.002888000    -0.113060000
H       2.209346000    -2.777456000     2.016246000
H       1.385773000    -2.658751000     0.454561000
H       1.227746000    -4.141958000     1.431107000
H      -0.188887000    -2.994102000     3.505990000
H      -1.551914000    -4.098602000     1.389827000
H      -1.635589000    -2.618426000     0.399465000
H      -2.516699000    -2.700525000     1.927932000
H       1.737990000     2.443841000     0.428916000
H       2.594933000     2.420808000     1.977788000
H       1.813941000     3.920825000     1.424288000
H       0.272997000     2.957440000     3.518183000
H      -1.250368000     2.837443000     0.418585000
H      -2.090822000     3.040334000     1.959706000
H      -0.936756000     4.282788000     1.414270000
H      -1.828236000    -1.702793000     5.038823000
H      -2.561094000    -0.103703000     4.865167000
H      -1.760669000    -0.554986000     6.390443000
H      -0.097728000     1.287287000     5.219462000
H       1.168307000    -1.930178000     5.258705000
H       2.133935000    -0.448406000     5.268085000
H       1.025013000    -0.795029000     6.614175000
Cl     -3.112620000     0.228993000     1.044726000
Cl     -4.970228000     0.398524000     1.893329000