34
energy: -47692071550292.500000 kJ/mol; low freq (cm^-1) (cm^-1) (cm^-1): 21.9, 24.97, 29.77
C       1.169309000    -3.091061000    -0.929669000
P      -0.305628000    -2.330761000    -0.174447000
C      -1.754568000    -2.957003000    -1.081810000
C       1.707278000     2.819237000    -0.849652000
P       0.091372000     2.325886000    -0.164411000
C      -1.178675000     3.209893000    -1.123358000
C      -1.480744000    -0.823423000     3.133672000
P      -0.107164000    -0.010880000     2.252185000
C       1.422129000    -0.739170000     2.936355000
Pt     -0.153787000     0.003950000    -0.020100000
Br     -0.061257000    -0.001441000    -2.513161000
H       2.053112000    -2.837177000    -0.347697000
H       1.282897000    -2.689419000    -1.934077000
H       1.056632000    -4.173107000    -0.970530000
H      -0.397737000    -3.001123000     1.063349000
H      -1.713482000    -4.043109000    -1.143733000
H      -1.745469000    -2.523871000    -2.079464000
H      -2.664214000    -2.647708000    -0.573026000
H       1.788803000     2.411472000    -1.854947000
H       2.508694000     2.410929000    -0.237259000
H       1.788070000     3.904536000    -0.880398000
H       0.059351000     2.974956000     1.087810000
H      -1.208681000     2.788529000    -2.125494000
H      -2.149849000     3.075111000    -0.654128000
H      -0.932688000     4.269538000    -1.169150000
H      -1.539929000    -1.869735000     2.841653000
H      -2.416446000    -0.335755000     2.873572000
H      -1.314337000    -0.759289000     4.207973000
H      -0.111885000     1.282088000     2.811302000
H       1.477451000    -1.789986000     2.656690000
H       2.288952000    -0.223800000     2.528133000
H       1.428320000    -0.658653000     4.022281000
Br     -3.142896000     0.306617000     0.066495000
Br     -5.491403000     0.495667000     0.275213000