34
energy: -7259948.366000 kJ/mol; low freq (cm^-1): 25.57, 30.86, 35.35
C       0.269878000    -3.350996000    -1.137129000
P      -0.762711000    -2.189811000    -0.189347000
C      -2.421038000    -2.220024000    -0.945086000
C       2.498095000     2.286232000    -1.110545000
P       0.928607000     2.156494000    -0.197083000
C      -0.253828000     3.286488000    -1.001508000
C      -1.118746000     1.177539000     2.954611000
P       0.080436000    -0.003271000     2.244227000
C       1.659053000     0.319559000     3.098171000
Pt      0.105176000    -0.028322000    -0.017292000
Cl      0.045887000    -0.005473000    -2.381369000
H       1.227390000    -3.478885000    -0.638612000
H       0.439167000    -2.926519000    -2.124232000
H      -0.234678000    -4.311848000    -1.223497000
H      -0.950833000    -2.844567000     1.045947000
H      -2.780696000    -3.244516000    -1.025122000
H      -2.349198000    -1.772279000    -1.934118000
H      -3.113423000    -1.636289000    -0.341959000
H       2.354186000     1.842386000    -2.093239000
H       3.272945000     1.733429000    -0.585203000
H       2.787992000     3.330856000    -1.209487000
H       1.210855000     2.808381000     1.021750000
H      -0.483771000     2.887392000    -1.987072000
H      -1.171437000     3.336275000    -0.418712000
H       0.176201000     4.282451000    -1.092582000
H      -2.112586000     0.971760000     2.562812000
H      -0.836459000     2.191177000     2.674922000
H      -1.131503000     1.097862000     4.040549000
H      -0.323217000    -1.228627000     2.810600000
H       2.383180000    -0.441534000     2.819707000
H       1.504162000     0.307883000     4.175952000
H       2.045785000     1.292671000     2.802196000
Cl      2.898022000    -1.154971000     0.076157000
Cl      4.818132000    -1.893006000     0.238178000