34
energy: -49260326359373.937500 kJ/mol; low freq (cm^-1) (cm^-1) (cm^-1): 25.85, 28.89, 36.09
C       1.255912000    -3.172284000    -1.061556000
P      -0.097903000    -2.344564000    -0.168149000
C      -1.659918000    -2.887305000    -0.936417000
C       1.696123000     2.944232000    -1.073309000
P       0.252932000     2.310994000    -0.161796000
C      -1.222546000     3.085270000    -0.901901000
C      -1.507244000    -0.595465000     2.969013000
P       0.074754000    -0.027938000     2.252716000
C       1.376666000    -0.981338000     3.102352000
Pt      0.100132000    -0.015688000    -0.015179000
Br      0.022834000    -0.009542000    -2.511604000
H       2.195538000    -2.992173000    -0.544874000
H       1.318105000    -2.745460000    -2.060043000
H       1.063579000    -4.242055000    -1.122220000
H      -0.113108000    -3.021885000     1.069662000
H      -1.701335000    -3.974328000    -0.980524000
H      -1.707879000    -2.471251000    -1.940266000
H      -2.503214000    -2.512206000    -0.359949000
H       1.684422000     2.519730000    -2.074601000
H       2.608946000     2.634705000    -0.570575000
H       1.652173000     4.030779000    -1.126717000
H       0.357893000     2.952235000     1.090755000
H      -1.343822000     2.693429000    -1.909436000
H      -2.104606000     2.832935000    -0.316919000
H      -1.103305000     4.167002000    -0.934830000
H      -1.677897000    -1.634436000     2.692068000
H      -2.323863000     0.008287000     2.578932000
H      -1.482176000    -0.516420000     4.054831000
H       0.223998000     1.254399000     2.817255000
H       1.318698000    -2.027570000     2.808871000
H       2.351457000    -0.594424000     2.817205000
H       1.246593000    -0.903769000     4.180693000
Cl      3.109804000    -0.210400000     0.053268000
Cl      5.160126000    -0.380003000     0.213420000