34
energy: -6600685.015000 kJ/mol; low freq (cm^-1): 20.98, 23.51, 24.78
C       1.167573000    -3.127584000    -0.857004000
P      -0.305898000    -2.327467000    -0.138750000
C      -1.757469000    -3.006808000    -1.004031000
C       1.739205000     2.843230000    -0.799562000
P       0.121122000     2.330162000    -0.131669000
C      -1.144610000     3.278741000    -1.034407000
C      -1.520667000    -0.742801000     3.122614000
P      -0.092199000    -0.012346000     2.256081000
C       1.387179000    -0.824721000     2.956374000
Pt     -0.146415000     0.009071000    -0.026864000
I      -0.104344000     0.007201000    -2.696449000
H       2.053090000    -2.838407000    -0.294435000
H       1.278265000    -2.786023000    -1.883646000
H       1.056595000    -4.210383000    -0.834250000
H      -0.394791000    -2.949602000     1.124658000
H      -1.719349000    -4.094729000    -0.990385000
H      -1.751076000    -2.644985000    -2.029485000
H      -2.665168000    -2.660076000    -0.516205000
H       1.813838000     2.494716000    -1.827281000
H       2.538454000     2.390814000    -0.215982000
H       1.831867000     3.927580000    -0.766926000
H       0.105991000     2.933545000     1.143840000
H      -1.175066000     2.930019000    -2.063847000
H      -0.895886000     4.338374000    -1.005393000
H      -2.117254000     3.113627000    -0.577748000
H      -1.634851000    -1.785313000     2.832900000
H      -1.368976000    -0.683664000     4.199317000
H      -2.423419000    -0.205238000     2.844379000
H      -0.025993000     1.278216000     2.817301000
H       1.390644000    -1.876637000     2.675957000
H       1.384624000    -0.746786000     4.042522000
H       2.284921000    -0.354970000     2.560087000
Br     -3.151529000     0.310539000    -0.002272000
Br     -5.474755000     0.454860000     0.419480000