34
energy: -6396537.820000 kJ/mol; low freq (cm^-1): 7.1, 15.32, 18.46
C       0.472484000    -3.245731000     1.319210000
P      -0.808344000    -2.186930000     2.069697000
C      -2.338840000    -2.492958000     1.131924000
C       2.540592000     2.056582000     1.358230000
P       0.861490000     2.155413000     2.063626000
C      -0.036361000     3.396837000     1.079256000
C      -1.394165000     1.357602000     5.103782000
P      -0.239583000     0.096226000     4.468068000
C       1.324920000     0.330318000     5.380619000
Pt     -0.107035000     0.030991000     2.220960000
Cl     -0.118156000     0.034490000    -0.155919000
H       1.382692000    -3.201297000     1.913426000
H       0.682995000    -2.864029000     0.322192000
H       0.125291000    -4.275750000     1.257203000
H      -1.060806000    -2.807177000     3.311420000
H      -2.526356000    -3.563383000     1.065274000
H      -2.218397000    -2.074556000     0.134982000
H      -3.175406000    -2.000604000     1.621493000
H       2.462377000     1.608122000     0.369782000
H       3.166717000     1.423043000     1.982989000
H       2.982447000     3.048596000     1.282110000
H       1.070789000     2.825635000     3.287447000
H      -0.212621000     2.985845000     0.087803000
H      -0.994798000     3.612722000     1.544505000
H       0.554770000     4.308202000     1.006391000
H      -2.375318000     1.202723000     4.660099000
H      -1.041272000     2.347615000     4.820596000
H      -1.463141000     1.296622000     6.188797000
H      -0.739126000    -1.092338000     5.036901000
H       2.018746000    -0.466546000     5.121013000
H       1.142411000     0.318310000     6.454098000
H       1.770008000     1.284798000     5.106294000
I      -3.232027000     1.264444000     1.389355000
I      -5.414520000     2.269415000     2.659355000