34
energy: -7032442.130000 kJ/mol; low freq (cm^-1): 21.76, 25.37, 29.34
C       0.344228000    -3.249860000    -0.889932000
P      -0.918413000    -2.138019000    -0.187814000
C      -2.426694000    -2.364192000    -1.180179000
C       2.375903000     2.246320000    -0.973881000
P       0.722447000     2.232575000    -0.206235000
C      -0.317490000     3.385252000    -1.155485000
C      -0.985311000     1.387309000     3.124332000
P      -0.101492000     0.058070000     2.243917000
C       1.592042000     0.050444000     2.928692000
Pt     -0.146513000     0.062982000    -0.021671000
Cl     -0.068585000     0.028306000    -2.382707000
H       1.233538000    -3.245802000    -0.263024000
H       0.606968000    -2.879572000    -1.878776000
H      -0.045005000    -4.263954000    -0.964145000
H      -1.238816000    -2.737312000     1.048183000
H      -2.651470000    -3.425656000    -1.270413000
H      -2.255310000    -1.932060000    -2.163530000
H      -3.257544000    -1.847299000    -0.707051000
H       2.295404000     1.788033000    -1.957222000
H       3.069066000     1.664655000    -0.369423000
H       2.741027000     3.267715000    -1.067142000
H       0.932744000     2.912299000     1.011542000
H      -0.499276000     2.948083000    -2.134849000
H      -1.269853000     3.518593000    -0.648256000
H       0.187303000     4.344077000    -1.259728000
H      -2.040342000     1.352874000     2.866101000
H      -0.585450000     2.355185000     2.829155000
H      -0.859966000     1.259706000     4.198494000
H      -0.667660000    -1.103987000     2.803880000
H       2.151005000    -0.789081000     2.520919000
H       1.561237000    -0.025660000     4.014564000
H       2.097337000     0.973984000     2.650649000
Br     -2.980681000     1.076699000     0.064184000
Br     -5.167435000     1.939881000     0.289437000