34
energy: -6396538.619000 kJ/mol; low freq (cm^-1): 12.44, 18.26, 23.64
C       0.390014000    -3.214199000    -0.885189000
P      -0.908472000    -2.139897000    -0.189123000
C      -2.403533000    -2.426226000    -1.186271000
C       2.386945000     2.183336000    -0.971040000
P       0.732830000     2.224764000    -0.204992000
C      -0.255699000     3.423528000    -1.152743000
C      -0.999323000     1.389722000     3.114711000
P      -0.112402000     0.060981000     2.237473000
C       1.580697000     0.058708000     2.924090000
Pt     -0.177380000     0.073807000    -0.025824000
Cl     -0.169840000     0.068363000    -2.389757000
H       1.277951000    -3.178935000    -0.257398000
H       0.642129000    -2.838950000    -1.875017000
H       0.034079000    -4.240645000    -0.956740000
H      -1.213130000    -2.746290000     1.047400000
H      -2.593834000    -3.495375000    -1.264691000
H      -2.240736000    -2.000980000    -2.174078000
H      -3.253906000    -1.931620000    -0.723948000
H       2.288992000     1.735388000    -1.957671000
H       3.057335000     1.570923000    -0.371401000
H       2.790606000     3.190724000    -1.057307000
H       0.964522000     2.894141000     1.014795000
H      -0.456712000     2.998013000    -2.133440000
H      -1.201134000     3.600440000    -0.645819000
H       0.292953000     4.358328000    -1.254410000
H      -2.052925000     1.354893000     2.849774000
H      -0.598954000     2.357103000     2.818398000
H      -0.880035000     1.264711000     4.189856000
H      -0.673396000    -1.102253000     2.800265000
H       2.140909000    -0.781259000     2.518956000
H       1.549746000    -0.014193000     4.010134000
H       2.085085000     0.981965000     2.643591000
I      -3.229956000     1.169866000    -0.063316000
I      -5.730974000     2.134369000     0.483318000