34
energy: -6828190.327000 kJ/mol; low freq (cm^-1): 25.56, 27.97, 36.83
C       1.213497000    -3.230429000    -0.990560000
P      -0.125890000    -2.340999000    -0.133883000
C      -1.698131000    -2.908802000    -0.863780000
C       1.739860000     2.977255000    -0.986064000
P       0.275960000     2.315864000    -0.126994000
C      -1.178271000     3.148048000    -0.847468000
C      -1.505804000    -0.613399000     2.987318000
P       0.065208000    -0.027889000     2.260758000
C       1.384361000    -0.965389000     3.102339000
Pt      0.096131000    -0.011885000    -0.018442000
I       0.039616000    -0.004864000    -2.690884000
H       2.158740000    -3.029345000    -0.492276000
H       1.271553000    -2.866378000    -2.013561000
H       1.009347000    -4.299792000    -0.984253000
H      -0.142577000    -2.973775000     1.127585000
H      -1.751295000    -3.995986000    -0.841723000
H      -1.749804000    -2.553569000    -1.890404000
H      -2.533253000    -2.489863000    -0.305812000
H       1.734122000     2.616673000    -2.011914000
H       2.641772000     2.623613000    -0.492917000
H       1.711282000     4.065597000    -0.971904000
H       0.372251000     2.913372000     1.148036000
H      -1.289041000     2.818442000    -1.878032000
H      -1.045851000     4.228208000    -0.813579000
H      -2.072298000     2.871820000    -0.292122000
H      -1.670765000    -1.652687000     2.708663000
H      -1.472328000    -0.537359000     4.073098000
H      -2.330228000    -0.014722000     2.605775000
H       0.200482000     1.255755000     2.826004000
H       1.332626000    -2.013223000     2.813626000
H       1.265995000    -0.884391000     4.181777000
H       2.352654000    -0.571430000     2.804898000
Cl      3.105923000    -0.248963000     0.026061000
Cl      5.148148000    -0.435799000     0.279553000