43
energy: -45443339695574.421875 kJ/mol; low freq (cm^-1) (cm^-1) (cm^-1): 18.93, 19.68, 24.87
C      -2.616241000     2.207298000    -0.567487000
P      -0.831381000     2.240546000    -0.186565000
C      -0.627490000     3.365139000     1.246591000
C      -0.110321000     3.260659000    -1.517163000
C      -0.751125000    -2.015040000     2.579437000
P      -0.454593000    -0.254171000     2.165951000
C       0.632416000     0.369104000     3.490002000
C      -2.120970000     0.390704000     2.574550000
C       2.569679000    -2.253676000     1.261701000
P       1.501803000    -1.858756000    -0.175043000
C       2.751511000    -1.762459000    -1.501686000
C       0.561540000    -3.375977000    -0.557335000
Pt      0.153422000     0.087434000    -0.016137000
Br      0.110976000     0.056026000    -2.513561000
H      -2.757745000     1.627027000    -1.477537000
H      -2.985148000     3.220718000    -0.722560000
H      -3.177290000     1.741034000     0.237957000
H      -1.028524000     2.960881000     2.169088000
H      -1.128409000     4.308510000     1.031639000
H       0.435654000     3.552656000     1.383069000
H      -0.326254000     2.819637000    -2.484099000
H      -0.538114000     4.261172000    -1.456644000
H       0.967923000     3.317161000    -1.388440000
H      -1.131262000    -2.079656000     3.598484000
H       0.144297000    -2.619303000     2.504930000
H      -1.502174000    -2.412402000     1.899169000
H       0.209762000     0.129813000     4.465392000
H       0.745909000     1.446276000     3.393017000
H       1.618765000    -0.079111000     3.396973000
H      -2.373063000     0.097910000     3.593311000
H      -2.844689000    -0.052647000     1.893081000
H      -2.182792000     1.469115000     2.499048000
H       2.017488000    -2.377531000     2.186282000
H       3.280317000    -1.439429000     1.388813000
H       3.117632000    -3.172501000     1.055434000
H       2.265186000    -1.727507000    -2.470398000
H       3.394839000    -2.639642000    -1.435683000
H       3.348321000    -0.862484000    -1.374328000
H      -0.127467000    -3.620067000     0.246806000
H       1.244004000    -4.211187000    -0.711606000
H      -0.007825000    -3.200481000    -1.468372000
I       2.822963000     1.608975000     0.642107000
I       5.167509000     2.967355000     1.147864000