43
energy: -50611083063683.562500 kJ/mol; low freq (cm^-1) (cm^-1) (cm^-1): 12.48, 22.15, 25.08
C      -2.703054000     2.309119000    -0.086475000
P      -0.894176000     2.080487000    -0.027040000
C      -0.286257000     3.177775000     1.309748000
C      -0.280366000     2.954369000    -1.508001000
C      -0.646754000    -2.159686000     2.720254000
P      -0.332982000    -0.420228000     2.244769000
C      -1.858340000     0.334558000     2.918671000
C       1.013238000     0.147588000     3.338660000
C       2.463120000    -2.451866000     0.877122000
P       1.151058000    -2.090540000    -0.351356000
C       2.132727000    -1.946145000    -1.883953000
C       0.212839000    -3.641242000    -0.558906000
Pt     -0.123367000    -0.144109000     0.008591000
Cl     -0.640616000    -0.217812000    -2.332453000
H      -3.087181000     1.768235000    -0.949030000
H      -2.946933000     3.366881000    -0.180509000
H      -3.171861000     1.906633000     0.807584000
H      -0.623880000     2.865258000     2.292571000
H      -0.633392000     4.195065000     1.131115000
H       0.802556000     3.171798000     1.295773000
H      -0.679692000     2.486423000    -2.401993000
H      -0.587091000     3.999030000    -1.461326000
H       0.805855000     2.896995000    -1.540921000
H      -0.853084000    -2.207533000     3.788986000
H      -1.521448000    -2.511452000     2.175393000
H       0.193180000    -2.807644000     2.498734000
H      -1.956710000     0.064865000     3.969728000
H      -2.710368000    -0.064519000     2.370664000
H      -1.857714000     1.415101000     2.835687000
H       0.768407000    -0.053397000     4.381318000
H       1.166075000     1.216108000     3.203548000
H       1.936287000    -0.366224000     3.079379000
H       2.065286000    -2.652858000     1.866539000
H       3.129635000    -1.592762000     0.935963000
H       3.037247000    -3.318877000     0.551598000
H       1.468976000    -1.861668000    -2.738324000
H       2.768876000    -2.824906000    -1.987153000
H       2.753375000    -1.053509000    -1.836004000
H      -0.334203000    -3.883469000     0.348497000
H       0.887534000    -4.460360000    -0.805974000
H      -0.503248000    -3.502571000    -1.366476000
Br     -3.004694000    -1.465653000    -0.693947000
Br     -4.647948000    -2.289487000     0.762244000