43
energy: -6592435.298000 kJ/mol; low freq (cm^-1): 7.25, 17.3, 22.05
C      -2.706880000     2.134898000     2.041375000
P      -0.885202000     2.224564000     2.181923000
C      -0.509294000     3.342812000     3.585931000
C      -0.452192000     3.314586000     0.782654000
C      -0.657482000    -1.959676000     5.036074000
P      -0.415227000    -0.233993000     4.464857000
C       0.814118000     0.466567000     5.622573000
C      -2.022701000     0.439290000     5.035699000
C       2.614923000    -2.134402000     3.587706000
P       1.459713000    -1.889990000     2.184494000
C       2.615737000    -2.075718000     0.783896000
C       0.455197000    -3.412854000     2.048238000
Pt      0.193762000     0.114890000     2.288034000
Br      0.822273000     0.474501000    -0.114334000
H      -2.945278000     1.611550000     1.116635000
H      -3.127714000     3.139163000     2.000793000
H      -3.150740000     1.592145000     2.868762000
H      -0.756940000     2.915419000     4.550820000
H      -1.056362000     4.276925000     3.464310000
H       0.559069000     3.552612000     3.564472000
H      -0.768210000     2.872774000    -0.156334000
H      -0.958700000     4.267971000     0.933699000
H       0.622087000     3.473580000     0.748260000
H      -0.914226000    -1.941520000     6.094751000
H       0.223417000    -2.575799000     4.905529000
H      -1.484319000    -2.402436000     4.484038000
H       0.512222000     0.295177000     6.655346000
H       0.916159000     1.534046000     5.444246000
H       1.784633000     0.010069000     5.445295000
H      -2.138245000     0.210762000     6.094676000
H      -2.825416000    -0.046473000     4.484200000
H      -2.103040000     1.511051000     4.903537000
H       2.120905000    -2.137564000     4.552630000
H       3.334883000    -1.317599000     3.570089000
H       3.145652000    -3.077344000     3.461802000
H       2.072568000    -2.120322000    -0.154111000
H       3.174665000    -2.999535000     0.933943000
H       3.303155000    -1.235046000     0.747942000
H      -0.239708000    -3.515157000     2.874491000
H       1.105545000    -4.286451000     2.012940000
H      -0.114629000    -3.355744000     1.122021000
I       3.064298000     1.744579000     2.234841000
I       4.756567000     2.688812000     4.169388000