43
energy: -51394993582744.898438 kJ/mol; low freq (cm^-1) (cm^-1) (cm^-1): 16.86, 30.57, 36.69
C      -2.767872000     2.053029000    -0.558158000
P      -0.989844000     2.007722000    -0.153322000
C      -0.760042000     3.144986000     1.266944000
C      -0.192542000     2.968234000    -1.487405000
C      -0.822568000    -2.196075000     2.660094000
P      -0.600634000    -0.433352000     2.218430000
C       0.465801000     0.264298000     3.525542000
C      -2.290290000     0.160242000     2.599448000
C       2.555304000    -2.191949000     1.387417000
P       1.456886000    -1.948539000    -0.060909000
C       2.692785000    -1.717568000    -1.386345000
C       0.706693000    -3.573711000    -0.411951000
Pt     -0.031677000    -0.131078000     0.043512000
Br     -0.236572000    -0.314459000    -2.471142000
H      -2.925182000     1.471451000    -1.464435000
H      -3.093678000     3.079834000    -0.721330000
H      -3.354444000     1.609850000     0.242528000
H      -1.236932000     2.787263000     2.173289000
H      -1.173237000     4.122569000     1.020295000
H       0.307383000     3.253632000     1.453239000
H      -0.378108000     2.494332000    -2.445833000
H      -0.592427000     3.982033000    -1.487382000
H       0.881926000     3.003785000    -1.318009000
H      -1.195745000    -2.263306000     3.681685000
H       0.098548000    -2.761967000     2.588990000
H      -1.560449000    -2.628847000     1.986737000
H       0.060710000     0.036840000     4.511335000
H       0.533369000     1.343089000     3.403394000
H       1.466704000    -0.153402000     3.441668000
H      -2.544610000    -0.118635000     3.621671000
H      -2.986786000    -0.325881000     1.918556000
H      -2.386493000     1.234658000     2.498318000
H       2.008406000    -2.417672000     2.296753000
H       3.129538000    -1.279752000     1.542328000
H       3.246138000    -3.010146000     1.185902000
H       2.201110000    -1.713080000    -2.353742000
H       3.422460000    -2.525734000    -1.340759000
H       3.199966000    -0.764565000    -1.248665000
H       0.050873000    -3.874732000     0.400889000
H       1.481035000    -4.327343000    -0.551749000
H       0.114785000    -3.485627000    -1.320855000
Cl     -2.606479000    -1.768260000    -1.023112000
Cl     -4.042103000    -2.657552000     0.162191000