43
energy: -7228343.546000 kJ/mol; low freq (cm^-1): 16.9, 32.55, 35.54
C      -2.754115000     2.257582000    -0.484134000
P      -0.973981000     2.117834000    -0.112355000
C      -0.664862000     3.218448000     1.321548000
C      -0.154808000     3.058097000    -1.447816000
C      -0.955205000    -2.136039000     2.622923000
P      -0.666688000    -0.376516000     2.211826000
C       0.444982000     0.254933000     3.514525000
C      -2.324263000     0.282728000     2.619282000
C       2.421919000    -2.223750000     1.339792000
P       1.325138000    -1.925428000    -0.099198000
C       2.559744000    -1.703653000    -1.427917000
C       0.534168000    -3.525408000    -0.474127000
Pt     -0.106196000    -0.063818000     0.037332000
Br     -0.355139000    -0.216924000    -2.487203000
H      -2.954344000     1.712893000    -1.404666000
H      -3.033317000     3.303271000    -0.609523000
H      -3.348032000     1.815825000     0.311708000
H      -1.142561000     2.867612000     2.230298000
H      -1.035748000     4.218477000     1.098688000
H       0.409562000     3.273381000     1.490115000
H      -0.380028000     2.606680000    -2.408767000
H      -0.506174000     4.089542000    -1.428873000
H       0.922900000     3.040947000    -1.297539000
H      -1.328537000    -2.206534000     3.644201000
H      -0.056602000    -2.735611000     2.538939000
H      -1.711404000    -2.527508000     1.944423000
H       0.042146000     0.027247000     4.501210000
H       0.556160000     1.331882000     3.410169000
H       1.426143000    -0.202987000     3.411276000
H      -2.575568000     0.006540000     3.642983000
H      -3.049022000    -0.170803000     1.945126000
H      -2.377756000     1.360943000     2.526949000
H       1.871900000    -2.456944000     2.245454000
H       3.017685000    -1.328782000     1.512623000
H       3.092731000    -3.053374000     1.118400000
H       2.062279000    -1.666062000    -2.391774000
H       3.265767000    -2.533497000    -1.404926000
H       3.095986000    -0.769147000    -1.274553000
H      -0.151573000    -3.808923000     0.320044000
H       1.289006000    -4.301215000    -0.598338000
H      -0.034087000    -3.417297000    -1.395846000
Br     -2.773580000    -1.582763000    -1.072051000
Br     -4.460781000    -2.530789000     0.285823000