43
energy: -7228334.130000 kJ/mol; low freq (cm^-1): 15.93, 17.76, 25.83
C      -2.676990000     2.207523000     2.019559000
P      -0.859359000     2.239224000     2.220777000
C      -0.496426000     3.306976000     3.666696000
C      -0.347628000     3.352758000     0.867251000
C      -0.726962000    -2.008441000     5.003126000
P      -0.491242000    -0.272098000     4.464359000
C       0.677865000     0.420327000     5.688332000
C      -2.128706000     0.377412000     4.972013000
C       2.615192000    -2.067895000     3.643089000
P       1.478226000    -1.873365000     2.217930000
C       2.661195000    -2.024015000     0.835591000
C       0.531606000    -3.431795000     2.069731000
Pt      0.171840000     0.104826000     2.311937000
Br      0.804499000     0.477392000    -0.087932000
H      -2.899207000     1.716776000     1.073078000
H      -3.067032000     3.224630000     1.993214000
H      -3.163849000     1.655853000     2.816407000
H      -0.822221000     2.876220000     4.606792000
H      -0.982410000     4.273246000     3.537492000
H       0.581804000     3.457130000     3.706379000
H      -0.648763000     2.948850000    -0.093312000
H      -0.827863000     4.317694000     1.030408000
H       0.731866000     3.476636000     0.870491000
H      -1.038134000    -2.008494000     6.047260000
H       0.175723000    -2.600532000     4.912620000
H      -1.512898000    -2.464362000     4.404178000
H       0.328044000     0.227024000     6.702060000
H       0.778494000     1.491774000     5.537046000
H       1.658291000    -0.028847000     5.551151000
H      -2.297301000     0.121438000     6.017620000
H      -2.900337000    -0.095373000     4.367003000
H      -2.205028000     1.452499000     4.863168000
H       2.097472000    -2.113841000     4.594980000
H       3.286674000    -1.210172000     3.652333000
H       3.203647000    -2.976401000     3.520232000
H       2.135090000    -2.080698000    -0.111486000
H       3.241151000    -2.933664000     0.992126000
H       3.326430000    -1.165434000     0.814611000
H      -0.171590000    -3.560717000     2.884831000
H       1.215010000    -4.280151000     2.045369000
H      -0.024832000    -3.397247000     1.134224000
Br      3.019522000     1.673464000     1.913917000
Br      4.672264000     2.491054000     3.381488000