25
energy: -6518459.939000 kJ/mol; low freq (cm^-1): 20.45, 22.84, 28.08
P       2.170086000     0.337691000     2.383879000
C       3.124337000    -1.010382000     1.609537000
P      -0.146811000    -0.161978000     4.781694000
C      -0.977913000     1.174707000     5.711723000
P      -2.422776000    -0.331000000     2.358437000
C      -3.431109000     1.079584000     1.789543000
Pt     -0.125661000     0.014859000     2.522612000
I      -0.149043000     0.206070000    -0.146652000
H       2.530607000     1.500375000     1.683889000
H       2.831483000     0.557696000     3.609979000
H       4.182743000    -0.759422000     1.595688000
H       2.757661000    -1.153049000     0.596244000
H       2.965366000    -1.927470000     2.172286000
H       1.112551000    -0.265061000     5.402816000
H      -0.755642000    -1.336896000     5.263517000
H      -0.927083000     0.982277000     6.781526000
H      -2.020176000     1.232959000     5.404109000
H      -0.493125000     2.121697000     5.484337000
H      -2.739157000    -1.393751000     1.498289000
H      -3.075077000    -0.752065000     3.536694000
H      -3.315518000     1.907312000     2.486329000
H      -4.478981000     0.794012000     1.727351000
H      -3.068397000     1.386730000     0.811609000
Cl      0.062446000    -2.952478000     0.910916000
Cl      0.229597000    -4.864763000     1.651054000