25
energy: -47909539585204.015625 kJ/mol; low freq (cm^-1) (cm^-1) (cm^-1): 16.69, 26.36, 30.75
P      -0.135933000    -0.105388000     4.517773000
C       1.282771000    -0.581201000     5.562297000
P       2.211532000    -0.762122000     2.049711000
C       2.502558000    -2.328861000     1.164119000
P      -2.179467000     0.737955000     2.063575000
C      -3.363225000    -0.284040000     1.128657000
Pt     -0.002851000    -0.071467000     2.267085000
Cl      0.022203000    -0.041472000    -0.095735000
H      -0.546864000     1.123290000     5.070575000
H      -1.173926000    -0.936218000     4.983612000
H       0.994898000    -0.541253000     6.611015000
H       2.110212000     0.104257000     5.391228000
H       1.596503000    -1.593286000     5.314821000
H       2.986386000    -0.878431000     3.218493000
H       2.951921000     0.201337000     1.345438000
H       3.571233000    -2.501591000     1.056332000
H       2.046940000    -3.145764000     1.718646000
H       2.032518000    -2.260232000     0.186641000
H      -2.857988000     1.058218000     3.257257000
H      -2.177847000     1.988326000     1.423622000
H      -2.944012000    -0.475678000     0.144331000
H      -3.504193000    -1.231188000     1.643716000
H      -4.313452000     0.237967000     1.039015000
Cl     -1.002896000    -2.960675000     0.685962000
Cl     -1.636782000    -4.798019000     1.301921000