25
energy: -5655056.017000 kJ/mol; low freq (cm^-1): 16.6, 20.85, 25.6
P       2.234990000     0.447452000     2.397088000
C       3.320950000    -0.769370000     1.580966000
P      -0.091697000    -0.269109000     4.723503000
C      -0.973399000     1.001509000     5.697910000
P      -2.333331000    -0.381841000     2.272859000
C      -3.340021000     1.060989000     1.787573000
Pt     -0.040186000    -0.020501000     2.471418000
I      -0.026362000     0.199547000    -0.199047000
H       2.516224000     1.670747000     1.767099000
H       2.849836000     0.656512000     3.648921000
H       4.351559000    -0.421631000     1.603267000
H       2.988215000    -0.893361000     0.553474000
H       3.236416000    -1.724184000     2.094464000
H       1.162789000    -0.360015000     5.355934000
H      -0.670827000    -1.481418000     5.143936000
H      -0.930051000     0.764901000     6.759211000
H      -2.013211000     1.042445000     5.379341000
H      -0.514455000     1.971272000     5.517663000
H      -2.649414000    -1.388040000     1.347752000
H      -2.986211000    -0.876034000     3.421916000
H      -3.226912000     1.846654000     2.531789000
H      -4.387881000     0.780706000     1.703614000
H      -2.973462000     1.425251000     0.830644000
I       0.240625000    -3.185177000     1.087579000
I       0.431814000    -5.697082000     2.148530000