25
energy: -43365138259791.015625 kJ/mol; low freq (cm^-1) (cm^-1) (cm^-1): 18.94, 23.44, 30.51
P       2.323827000     0.543420000     2.412949000
C       3.432409000    -0.691005000     1.654857000
P       0.016884000    -0.171373000     4.759184000
C      -0.979279000     1.056662000     5.675984000
P      -2.200515000    -0.504729000     2.307297000
C      -3.296460000     0.848121000     1.760590000
Pt      0.065043000     0.004813000     2.502057000
I       0.076174000     0.161919000    -0.174242000
H       2.577829000     1.742265000     1.727233000
H       2.929424000     0.823490000     3.655265000
H       4.457466000    -0.326846000     1.663725000
H       3.104367000    -0.867302000     0.633595000
H       3.361025000    -1.622906000     2.210900000
H       1.267845000    -0.131280000     5.403737000
H      -0.461908000    -1.411632000     5.222996000
H      -0.925688000     0.866962000     6.746186000
H      -2.015986000     0.995516000     5.350638000
H      -0.602848000     2.054117000     5.459477000
H      -2.438111000    -1.565651000     1.420516000
H      -2.828776000    -0.996785000     3.470751000
H      -3.240445000     1.667805000     2.473967000
H      -4.323055000     0.496547000     1.682982000
H      -2.948216000     1.198474000     0.791778000
Br      0.481284000    -2.951620000     0.958112000
Br      0.754892000    -5.113442000     1.856870000