21
energy: -5235848514.584137 kJ/mol; low freq (cm^-1) (cm^-1): 14.67, 17.93, 54.49
C      -0.025763000     0.401757000    -0.553618000
N      -0.757106000    -0.466254000    -0.328819000
C      -1.726727000    -1.511878000    -0.156793000
C      -1.623112000    -2.502966000    -1.325695000
C      -2.082387000    -1.881865000    -2.644909000
C      -3.492428000    -1.298147000    -2.527475000
C      -3.586733000    -0.287306000    -1.382028000
C      -3.131271000    -0.897806000    -0.056436000
Au      1.188596000     1.874822000    -0.961182000
I       2.775663000     3.804042000    -1.536937000
H      -1.471730000    -2.011506000     0.778261000
H      -2.259965000    -3.354027000    -1.072956000
H      -0.601041000    -2.874801000    -1.398968000
H      -2.046268000    -2.636968000    -3.431025000
H      -1.383247000    -1.095032000    -2.939630000
H      -4.204651000    -2.110790000    -2.351347000
H      -3.781988000    -0.826242000    -3.467181000
H      -4.609335000     0.077266000    -1.278068000
H      -2.969282000     0.584854000    -1.612002000
H      -3.149210000    -0.159227000     0.745100000
H      -3.807013000    -1.705925000     0.233708000