21
energy: -6369440910.560538 kJ/mol; low freq (cm^-1) (cm^-1): 23.12, 30.57, 71.02
C       0.006622000     0.364921000    -0.492538000
N      -0.758500000    -0.485818000    -0.318984000
C      -1.744543000    -1.520158000    -0.178893000
C      -1.639668000    -2.492802000    -1.363101000
C      -2.091210000    -1.850083000    -2.674488000
C      -3.500952000    -1.266968000    -2.553346000
C      -3.593899000    -0.268425000    -1.397213000
C      -3.144283000    -0.895481000    -0.077435000
Au      1.293884000     1.774569000    -0.755823000
Cl      2.823088000     3.425721000    -1.061597000
H      -1.505022000    -2.040405000     0.749157000
H      -2.279752000    -3.346192000    -1.127254000
H      -0.618118000    -2.865901000    -1.437302000
H      -2.051720000    -2.592419000    -3.472526000
H      -1.390150000    -1.058906000    -2.952860000
H      -4.213751000    -2.081025000    -2.385974000
H      -3.789999000    -0.785374000    -3.488272000
H      -4.615348000     0.099029000    -1.291248000
H      -2.972157000     0.603491000    -1.616387000
H      -3.158580000    -0.164775000     0.731400000
H      -3.826941000    -1.700998000     0.203682000