21
energy: -2312209.524000 kJ/mol; low freq (cm^-1): 15.8, 24.86, 59.79
C      -0.017946000     0.344389000    -0.479453000
N      -0.768734000    -0.513648000    -0.280192000
C      -1.760739000    -1.545135000    -0.152049000
C      -1.648511000    -2.510733000    -1.341430000
C      -2.057314000    -1.845661000    -2.656015000
C      -3.457528000    -1.234297000    -2.562141000
C      -3.564040000    -0.253520000    -1.391646000
C      -3.156920000    -0.909080000    -0.071632000
Au      1.221444000     1.787163000    -0.848517000
Br      2.729618000     3.583033000    -1.341034000
H      -1.536812000    -2.070035000     0.777083000
H      -2.312439000    -3.351699000    -1.127514000
H      -0.633777000    -2.905060000    -1.396889000
H      -2.014737000    -2.580450000    -3.460852000
H      -1.333403000    -1.066950000    -2.909550000
H      -4.191908000    -2.035483000    -2.429607000
H      -3.709496000    -0.730345000    -3.496067000
H      -4.581817000     0.128895000    -1.305568000
H      -2.922723000     0.611394000    -1.579271000
H      -3.184908000    -0.192898000     0.749754000
H      -3.854309000    -1.712882000     0.176588000