11
energy: -2016361.936000 kJ/mol; low freq (cm^-1): 43.54, 53.75, 108.42
C      -0.256947000     0.225856000    -0.576872000
N      -0.961890000    -0.655551000    -0.319083000
C      -1.823917000    -1.755549000    -0.029736000
C      -1.834067000    -2.777045000    -1.161963000
Au      0.904397000     1.705230000    -0.991332000
Cl      2.265483000     3.456256000    -1.471954000
H      -2.821564000    -1.351484000     0.144307000
H      -1.479711000    -2.204277000     0.902421000
H      -2.506403000    -3.593191000    -0.900420000
H      -2.181296000    -2.323924000    -2.088935000
H      -0.838083000    -3.185321000    -1.324433000