11
energy: -1902579.797000 kJ/mol; low freq (cm^-1): 36.09, 43.1, 101.35
C      -0.298786000     0.248578000    -0.595055000
N      -0.985445000    -0.641055000    -0.317019000
C      -1.817642000    -1.763061000    -0.021957000
C      -1.804804000    -2.785685000    -1.153192000
Au      0.839612000     1.746575000    -1.052139000
Br      2.248645000     3.595215000    -1.623576000
H      -2.824434000    -1.384452000     0.156109000
H      -1.456633000    -2.200711000     0.909117000
H      -2.450092000    -3.621501000    -0.885407000
H      -0.797910000    -3.163538000    -1.321944000
H      -2.172510000    -2.344367000    -2.077938000