11
energy: -1584599.234000 kJ/mol; low freq (cm^-1): 30.22, 37.54, 97.54
C      -0.337874000     0.261335000    -0.604387000
N      -1.010745000    -0.636007000    -0.318172000
C      -1.819335000    -1.773407000    -0.019088000
C      -1.814828000    -2.779147000    -1.165653000
Au      0.820467000     1.759223000    -1.077142000
I       2.367656000     3.707834000    -1.689105000
H      -2.827834000    -1.414029000     0.186965000
H      -1.430946000    -2.218431000     0.897424000
H      -2.440399000    -3.629844000    -0.898365000
H      -2.208606000    -2.329474000    -2.075598000
H      -0.805558000    -3.137054000    -1.361878000