14
energy: -5266183515.331762 kJ/mol; low freq (cm^-1) (cm^-1): 33.27, 35.36, 93.66
C      -0.234081000     0.293999000    -0.660158000
N      -0.936783000    -0.585369000    -0.389456000
C      -1.841711000    -1.665283000    -0.106841000
C      -1.740669000    -2.717565000    -1.209944000
C      -3.255247000    -1.111336000     0.063906000
Au      0.943600000     1.764170000    -1.113315000
Br      2.395509000     3.582254000    -1.682883000
H      -1.504717000    -2.097009000     0.837536000
H      -2.393732000    -3.554882000    -0.967124000
H      -0.721459000    -3.087186000    -1.306141000
H      -2.053190000    -2.298145000    -2.165755000
H      -3.601956000    -0.660284000    -0.865343000
H      -3.287781000    -0.360151000     0.850916000
H      -3.929783000    -1.924213000     0.329601000