14
energy: -2119565.263000 kJ/mol; low freq (cm^-1): 40.25, 43.53, 100.91
C      -0.211238000     0.273847000    -0.621070000
N      -0.924142000    -0.603497000    -0.371250000
C      -1.846299000    -1.674818000    -0.113582000
C      -1.755574000    -2.707966000    -1.235292000
C      -3.252340000    -1.103272000     0.061388000
Au      0.980308000     1.731418000    -1.030658000
Cl      2.380180000     3.451615000    -1.515262000
H      -1.520341000    -2.128824000     0.824209000
H      -2.420224000    -3.540952000    -1.009625000
H      -0.740963000    -3.089064000    -1.335195000
H      -2.059659000    -2.267266000    -2.184234000
H      -3.589527000    -0.632528000    -0.861599000
H      -3.276771000    -0.364273000     0.860156000
H      -3.939413000    -1.910421000     0.312013000