14
energy: -4431325673.461813 kJ/mol; low freq (cm^-1) (cm^-1): 27.12, 29.36, 89.81
C      -0.268905000     0.314954000    -0.707713000
N      -0.955236000    -0.569471000    -0.413793000
C      -1.835888000    -1.660210000    -0.100196000
C      -1.728172000    -2.728571000    -1.187116000
C      -3.256980000    -1.129649000     0.080356000
Au      0.896725000     1.801250000    -1.201453000
I       2.430668000     3.746514000    -1.857676000
H      -1.477921000    -2.069163000     0.846562000
H      -2.359613000    -3.575352000    -0.921574000
H      -0.702626000    -3.077819000    -1.291691000
H      -2.062334000    -2.331642000    -2.145171000
H      -3.624638000    -0.701766000    -0.851721000
H      -3.912380000    -1.949889000     0.369883000
H      -3.292701000    -0.365187000     0.854304000