8
energy: -3889410706.753211 kJ/mol; low freq (cm^-1) (cm^-1): 38.48, 39.04, 158.3
C      -0.348415000     0.113899000    -0.563354000
N      -1.006760000    -0.774029000    -0.220488000
C      -1.811891000    -1.865964000     0.194477000
Au      0.764255000     1.611752000    -1.132394000
I       2.227273000     3.575266000    -1.882852000
H      -1.788203000    -2.642891000    -0.567557000
H      -2.836381000    -1.527008000     0.336618000
H      -1.426877000    -2.264026000     1.131550000