8
energy: -1799378.677000 kJ/mol; low freq (cm^-1): 46.51, 47.09, 161.96
C      -0.322955000     0.115626000    -0.532941000
N      -1.001776000    -0.767224000    -0.216879000
C      -1.830027000    -1.852417000     0.170701000
Au      0.815397000     1.588179000    -1.065264000
Br      2.224825000     3.406491000    -1.726368000
H      -1.811128000    -2.617306000    -0.603695000
H      -1.462922000    -2.272680000     1.105393000
H      -2.850414000    -1.498669000     0.307052000