8
energy: -1913160.849000 kJ/mol; low freq (cm^-1): 57.51, 60.49, 166.05
C      -0.294445000     0.099949000    -0.506412000
N      -0.992074000    -0.774963000    -0.209776000
C      -1.849660000    -1.845314000     0.154168000
Au      0.864453000     1.556378000    -0.998587000
Cl      2.225368000     3.276657000    -1.577843000
H      -1.836143000    -2.603022000    -0.627342000
H      -2.863902000    -1.470030000     0.278639000
H      -1.506597000    -2.282655000     1.090152000