15
energy: -2302703.798000 kJ/mol; low freq (cm^-1): 26.37, 29.64, 82.15
C      -0.381342000     0.194391000    -0.790062000
N      -1.117593000    -0.658099000    -0.505099000
C      -1.995002000    -1.676028000    -0.186804000
C      -2.607373000    -2.396485000    -1.211429000
C      -3.486593000    -3.416603000    -0.881570000
C      -3.750651000    -3.712744000     0.451725000
C      -3.133647000    -2.985824000     1.464703000
C      -2.251839000    -1.962154000     1.153265000
Au      0.830446000     1.604802000    -1.314361000
Br      2.338910000     3.333204000    -1.992101000
H      -2.390289000    -2.151982000    -2.240531000
H      -3.966329000    -3.980866000    -1.668327000
H      -4.436801000    -4.509465000     0.701194000
H      -3.338577000    -3.215130000     2.500510000
H      -1.763546000    -1.386416000     1.925326000