15
energy: -5210890962.810444 kJ/mol; low freq (cm^-1) (cm^-1): 22.45, 24.06, 77.19
C      -0.413850000     0.232516000    -0.763192000
N      -1.144975000    -0.637295000    -0.522741000
C      -2.008085000    -1.675229000    -0.230340000
C      -2.616038000    -2.373467000    -1.272536000
C      -3.479580000    -3.414724000    -0.968556000
C      -3.732670000    -3.753144000     0.356668000
C      -3.120278000    -3.047783000     1.387480000
C      -2.253891000    -2.003675000     1.102171000
Au      0.812844000     1.685998000    -1.174785000
I       2.411489000     3.607038000    -1.733652000
H      -2.407437000    -2.096012000    -2.295154000
H      -3.955621000    -3.962512000    -1.769281000
H      -4.406737000    -4.566226000     0.586031000
H      -3.316873000    -3.310045000     2.417222000
H      -1.769025000    -1.444107000     1.888340000