15
energy: -6344484099.169970 kJ/mol; low freq (cm^-1) (cm^-1): 7.47, 36.24, 86.2
C      -0.351739000     0.185886000    -0.771593000
N      -1.115104000    -0.663899000    -0.560605000
C      -2.013868000    -1.671807000    -0.270835000
C      -2.641269000    -2.353442000    -1.312421000
C      -3.534377000    -3.369655000    -1.007961000
C      -3.796799000    -3.700375000     0.317330000
C      -3.165982000    -3.010712000     1.347787000
C      -2.270968000    -1.991527000     1.061949000
Au      0.929707000     1.581108000    -1.088915000
Cl      2.458520000     3.218414000    -1.439976000
H      -2.424522000    -2.083832000    -2.335415000
H      -4.025018000    -3.905047000    -1.808184000
H      -4.491834000    -4.495354000     0.547422000
H      -3.369681000    -3.266884000     2.377689000
H      -1.771065000    -1.444876000     1.847725000