17
energy: -5835877961.279187 kJ/mol; low freq (cm^-1) (cm^-1): 35.99, 41.46, 98.2
C      -0.292593000     0.194355000    -0.630459000
N      -1.036758000    -0.666681000    -0.419287000
C      -1.964746000    -1.742584000    -0.151115000
C      -1.876018000    -2.735485000    -1.314894000
C      -1.544866000    -2.397459000     1.169445000
C      -3.368355000    -1.136395000    -0.045362000
Au      0.951923000     1.625291000    -0.974730000
Cl      2.424670000     3.306839000    -1.374084000
H      -2.563146000    -3.561264000    -1.134498000
H      -0.867215000    -3.135084000    -1.405102000
H      -2.147579000    -2.255266000    -2.253689000
H      -2.227140000    -3.215634000     1.396315000
H      -1.580830000    -1.677378000     1.985459000
H      -0.533894000    -2.795638000     1.098691000
H      -3.650452000    -0.647957000    -0.976741000
H      -3.413667000    -0.406063000     0.760953000
H      -4.085336000    -1.929598000     0.163097000