17
energy: -4702285193.248431 kJ/mol; low freq (cm^-1) (cm^-1): 24.72, 25.61, 86.82
C      -0.345489000     0.207755000    -0.719761000
N      -1.063598000    -0.661900000    -0.460624000
C      -1.962771000    -1.747698000    -0.139310000
C      -1.911604000    -2.751704000    -1.295864000
C      -3.367038000    -1.155008000     0.019963000
C      -1.477414000    -2.382766000     1.168048000
Au      0.866419000     1.674631000    -1.160383000
I       2.458525000     3.597622000    -1.744847000
H      -2.584234000    -3.581075000    -1.080901000
H      -0.903889000    -3.144276000    -1.422014000
H      -2.223629000    -2.283086000    -2.227870000
H      -3.691721000    -0.677780000    -0.903302000
H      -4.067387000    -1.952258000     0.265467000
H      -3.385081000    -0.416927000     0.820259000
H      -2.139628000    -3.205630000     1.434257000
H      -1.484954000    -1.654301000     1.977261000
H      -0.466506000    -2.771603000     1.056619000