17
energy: -5537142862.877705 kJ/mol; low freq (cm^-1) (cm^-1): 30.81, 31.73, 90.97
C      -0.328656000     0.218840000    -0.657403000
N      -1.052898000    -0.654493000    -0.428028000
C      -1.958026000    -1.746913000    -0.146328000
C      -1.850248000    -2.748553000    -1.301194000
C      -1.525842000    -2.381878000     1.179708000
C      -3.373121000    -1.166938000    -0.046043000
Au      0.882114000     1.681543000    -1.047255000
Br      2.379054000     3.488098000    -1.535451000
H      -2.524010000    -3.584022000    -1.115136000
H      -0.834730000    -3.132060000    -1.385823000
H      -2.127592000    -2.280957000    -2.244636000
H      -2.192979000    -3.210717000     1.413309000
H      -1.575639000    -1.656122000     1.989901000
H      -0.507887000    -2.762448000     1.112635000
H      -3.662309000    -0.688737000    -0.980546000
H      -4.075478000    -1.972382000     0.165080000
H      -3.433755000    -0.433260000     0.756210000