11
energy: -4533736785.861477 kJ/mol; low freq (cm^-1) (cm^-1): 41.55, 44.42, 177.46
C      -0.081996000     0.077339000    -0.407587000
N      -1.397617000     0.205837000    -0.121588000
C      -1.716641000     1.478166000     0.321754000
C      -0.560780000     2.178118000     0.316136000
N       0.415660000     1.303992000    -0.130745000
Au      0.893248000    -1.541621000    -1.091792000
I       2.141485000    -3.619988000    -1.978225000
H      -2.044180000    -0.555570000    -0.230041000
H      -2.713266000     1.768092000     0.594939000
H      -0.354190000     3.196880000     0.583452000
H       1.389277000     1.523753000    -0.246305000