11
energy: -2044788.783000 kJ/mol; low freq (cm^-1): 48.75, 53.31, 211.09
C      -0.062787000     0.060762000    -0.350930000
N      -1.385956000     0.194721000    -0.102284000
C      -1.721266000     1.482865000     0.278364000
C      -0.568289000     2.187506000     0.273942000
N       0.423328000     1.300215000    -0.109652000
Au      0.910417000    -1.560595000    -0.990028000
Br      2.055381000    -3.513051000    -1.829677000
H      -2.026909000    -0.573291000    -0.196405000
H      -2.726549000     1.779041000     0.510188000
H      -0.372940000     3.218133000     0.501465000
H       1.398570000     1.520694000    -0.208983000