11
energy: -5667327415.015530 kJ/mol; low freq (cm^-1) (cm^-1): 62.85, 69.45, 220.03
C      -0.076782000     0.057003000    -0.357393000
N      -1.401618000     0.204063000    -0.123826000
C      -1.729046000     1.498564000     0.242502000
C      -0.570667000     2.194235000     0.239485000
N       0.416470000     1.296182000    -0.128681000
Au      0.915000000    -1.577571000    -0.893033000
Cl      2.070131000    -3.454030000    -1.508118000
H      -2.047246000    -0.560538000    -0.213432000
H      -2.732734000     1.804761000     0.467962000
H      -0.368131000     3.224535000     0.461836000
H       1.394622000     1.505798000    -0.222301000