43
energy: -3276822.288000 kJ/mol; low freq (cm^-1): 8.98, 13.02, 30.77
C      -5.165254000    -5.075804000    -5.983955000
N      -6.387425000    -5.395126000    -5.492927000
C      -6.793030000    -5.185521000    -4.098454000
C      -7.162704000    -6.504693000    -3.421836000
C      -7.550561000    -6.267625000    -1.960593000
C      -8.674904000    -5.237199000    -1.839258000
C      -8.303398000    -3.925785000    -2.533996000
C      -7.917459000    -4.155758000    -3.996720000
C      -7.186832000    -5.931984000    -6.485510000
C      -6.446171000    -5.949428000    -7.617240000
N      -5.208713000    -5.424754000    -7.293101000
C      -4.093809000    -5.240363000    -8.228583000
C      -3.669425000    -6.563805000    -8.862425000
C      -2.477602000    -6.348032000    -9.797906000
C      -2.782463000    -5.287816000   -10.858123000
C      -3.228822000    -3.972327000   -10.216907000
C      -4.420276000    -4.180506000    -9.279669000
Au     -3.621449000    -4.241737000    -5.008802000
Br     -1.748328000    -3.226000000    -3.861015000
H      -5.903784000    -4.780897000    -3.614116000
H      -6.321436000    -7.195635000    -3.494095000
H      -8.003837000    -6.963493000    -3.950688000
H      -6.673652000    -5.912887000    -1.411203000
H      -7.845992000    -7.211865000    -1.500687000
H      -8.904416000    -5.053880000    -0.788294000
H      -9.585867000    -5.641297000    -2.293289000
H      -7.460097000    -3.465431000    -2.010931000
H      -9.130071000    -3.215962000    -2.478452000
H      -8.789518000    -4.513323000    -4.553108000
H      -7.595845000    -3.224450000    -4.465138000
H      -8.195624000    -6.252261000    -6.308498000
H      -6.692513000    -6.288080000    -8.605263000
H      -3.276054000    -4.873125000    -7.607581000
H      -4.505003000    -6.983620000    -9.430898000
H      -3.422620000    -7.278966000    -8.076264000
H      -2.203495000    -7.292860000   -10.269568000
H      -1.613587000    -6.030692000    -9.206737000
H      -3.574812000    -5.655190000   -11.518762000
H      -1.905025000    -5.121171000   -11.485128000
H      -3.487207000    -3.241337000   -10.984490000
H      -2.397685000    -3.547125000    -9.646811000
H      -4.687981000    -3.249042000    -8.778749000
H      -5.292535000    -4.499620000    -9.858745000