43
energy: -8902028990.662298 kJ/mol; low freq (cm^-1) (cm^-1): 7.04, 14.0, 32.95
C      -5.057450000    -6.260298000    -5.687778000
N      -6.312260000    -5.842640000    -5.387608000
C      -6.789839000    -5.599316000    -4.021795000
C      -8.053319000    -6.401370000    -3.716833000
C      -8.500563000    -6.161069000    -2.272945000
C      -8.697110000    -4.670800000    -1.987819000
C      -7.435961000    -3.870273000    -2.318253000
C      -6.983274000    -4.106361000    -3.760616000
C      -7.050638000    -5.648766000    -6.540395000
C      -6.242317000    -5.959053000    -7.579490000
N      -5.024921000    -6.333849000    -7.041035000
C      -3.850005000    -6.752072000    -7.813637000
C      -4.142665000    -8.005736000    -8.637003000
C      -2.895632000    -8.444243000    -9.407865000
C      -2.348695000    -7.312089000   -10.279561000
C      -2.074785000    -6.055825000    -9.450360000
C      -3.319138000    -5.610251000    -8.679307000
Au     -3.572076000    -6.637322000    -4.404845000
Cl     -1.871107000    -7.047325000    -2.917556000
H      -5.983525000    -5.961283000    -3.383231000
H      -7.862042000    -7.460838000    -3.893813000
H      -8.854605000    -6.099391000    -4.398066000
H      -7.743420000    -6.562870000    -1.593351000
H      -9.421205000    -6.712464000    -2.076253000
H      -8.973453000    -4.522175000    -0.942651000
H      -9.531583000    -4.295374000    -2.589344000
H      -6.630753000    -4.166911000    -1.639867000
H      -7.605431000    -2.805087000    -2.154388000
H      -7.733922000    -3.711424000    -4.452385000
H      -6.048104000    -3.583135000    -3.964789000
H      -8.070563000    -5.315525000    -6.527283000
H      -6.430793000    -5.946972000    -8.635827000
H      -3.100967000    -6.995607000    -7.059527000
H      -4.952287000    -7.798057000    -9.343446000
H      -4.489714000    -8.799843000    -7.974195000
H      -3.128630000    -9.318306000   -10.017874000
H      -2.126559000    -8.755898000    -8.695076000
H      -3.075944000    -7.076187000   -11.063628000
H      -1.437198000    -7.634453000   -10.785586000
H      -1.727704000    -5.243283000   -10.090395000
H      -1.268811000    -6.260160000    -8.739484000
H      -3.096482000    -4.751307000    -8.044620000
H      -4.094569000    -5.298129000    -9.385817000