43
energy: -2958843.335000 kJ/mol; low freq (cm^-1): 10.33, 14.37, 25.37
C      -5.098545000    -6.320041000    -5.698096000
N      -6.248930000    -5.674151000    -5.389944000
C      -6.774128000    -5.539287000    -4.026608000
C      -8.110829000    -6.262575000    -3.870170000
C      -8.619115000    -6.141297000    -2.431910000
C      -8.713664000    -4.679037000    -1.991739000
C      -7.376248000    -3.957599000    -2.170023000
C      -6.864345000    -4.072669000    -3.607540000
C      -6.846251000    -5.170903000    -6.530996000
C      -6.049367000    -5.508928000    -7.570771000
N      -4.982072000    -6.212478000    -7.043524000
C      -3.862701000    -6.762960000    -7.816127000
C      -4.337223000    -7.821910000    -8.809753000
C      -3.148085000    -8.406798000    -9.575138000
C      -2.331421000    -7.311957000   -10.264579000
C      -1.877042000    -6.245436000    -9.266139000
C      -3.061915000    -5.654985000    -8.498767000
Au     -3.837795000    -7.257446000    -4.426546000
I      -2.231936000    -8.469734000    -2.800824000
H      -6.033285000    -6.036609000    -3.399575000
H      -7.988750000    -7.309358000    -4.152349000
H      -8.844240000    -5.826118000    -4.555360000
H      -7.935587000    -6.676376000    -1.766217000
H      -9.589734000    -6.631276000    -2.341777000
H      -9.036099000    -4.620219000    -0.950910000
H      -9.480161000    -4.171293000    -2.586659000
H      -6.636434000    -4.393301000    -1.492165000
H      -7.469624000    -2.905759000    -1.895673000
H      -7.545030000    -3.541479000    -4.280056000
H      -5.882771000    -3.607311000    -3.709196000
H      -7.769786000    -4.624689000    -6.510359000
H      -6.152134000    -5.309835000    -8.620283000
H      -3.228181000    -7.243566000    -7.070622000
H      -5.040204000    -7.370636000    -9.516836000
H      -4.876733000    -8.603722000    -8.273080000
H      -3.502721000    -9.136206000   -10.304854000
H      -2.506661000    -8.950506000    -8.875410000
H      -2.941792000    -6.841750000   -11.042794000
H      -1.466766000    -7.748694000   -10.766963000
H      -1.335882000    -5.448249000    -9.777990000
H      -1.177070000    -6.691260000    -8.553457000
H      -2.721701000    -4.941225000    -7.747023000
H      -3.710527000    -5.110172000    -9.191817000