17
energy: -1933182.088000 kJ/mol; low freq (cm^-1): 38.8, 40.35, 56.52
C      -0.043849000     0.059529000    -0.306174000
N      -1.361376000     0.156708000    -0.000329000
C      -2.330571000    -0.917948000    -0.158368000
C      -1.665232000     1.415280000     0.484356000
C      -0.512237000     2.121399000     0.481737000
N       0.469168000     1.278022000    -0.004628000
C       1.866264000     1.652987000    -0.167945000
Au      0.933768000    -1.546678000    -1.047408000
I       2.173441000    -3.605315000    -1.998319000
H      -3.115099000    -0.613471000    -0.849176000
H      -1.813029000    -1.784824000    -0.557445000
H      -2.769357000    -1.169040000     0.806004000
H      -2.658561000     1.693301000     0.783749000
H      -0.307438000     3.133349000     0.777978000
H       1.950289000     2.484724000    -0.865631000
H       2.403094000     0.795133000    -0.560829000
H       2.290724000     1.937842000     0.793427000