17
energy: -6209157592.128433 kJ/mol; low freq (cm^-1) (cm^-1): 49.39, 58.73, 64.62
C      -0.032479000     0.038434000    -0.245310000
N      -1.366497000     0.155832000    -0.026424000
C      -2.325894000    -0.932297000    -0.145811000
C      -1.698153000     1.451082000     0.324445000
C      -0.547518000     2.160810000     0.324712000
N       0.461176000     1.283293000    -0.025841000
C       1.864658000     1.651316000    -0.142768000
Au      0.985426000    -1.599798000    -0.764422000
Cl      2.164207000    -3.473374000    -1.357977000
H      -3.070907000    -0.690372000    -0.902178000
H      -2.817896000    -1.102818000     0.810542000
H      -1.787421000    -1.827528000    -0.440751000
H      -2.707403000     1.749050000     0.539411000
H      -0.360617000     3.196361000     0.539984000
H       1.985199000     2.425028000    -0.899396000
H       2.422758000     0.767717000    -0.436387000
H       2.236360000     2.014266000     0.814170000