17
energy: -2251161.102000 kJ/mol; low freq (cm^-1): 40.84, 44.58, 51.42
C      -0.022337000     0.046117000    -0.255074000
N      -1.349815000     0.148900000     0.005321000
C      -2.308533000    -0.936735000    -0.141193000
C      -1.676850000     1.428958000     0.411655000
C      -0.528292000     2.141992000     0.411918000
N       0.474462000     1.280982000     0.005417000
C       1.872104000     1.660953000    -0.137466000
Au      0.943378000    -1.569662000    -0.950631000
Br      2.033828000    -3.526869000    -1.856752000
H      -2.974330000    -0.741156000    -0.980437000
H      -2.890882000    -1.039214000     0.772689000
H      -1.757183000    -1.853402000    -0.326480000
H      -2.681053000     1.713895000     0.664610000
H      -0.338391000     3.168382000     0.665259000
H       1.994419000     2.342412000    -0.978259000
H       2.452714000     0.761457000    -0.316344000
H       2.216758000     2.142988000     0.775767000