31
energy: -3257801.548000 kJ/mol; low freq (cm^-1): 27.38, 29.97, 38.99
C      -0.798893000     0.949224000     0.157200000
N      -1.235465000    -0.099452000    -0.592708000
C      -2.231542000    -1.040847000    -0.189355000
C      -3.286689000    -1.318665000    -1.049556000
C      -4.255770000    -2.237260000    -0.667220000
C      -4.173857000    -2.863240000     0.570917000
C      -3.115768000    -2.574835000     1.425136000
C      -2.135224000    -1.668403000     1.046343000
C      -0.608013000    -0.123487000    -1.831314000
C       0.245518000     0.920101000    -1.855250000
N       0.125026000     1.563638000    -0.630948000
C       0.858997000     2.736156000    -0.273460000
C       1.534824000     2.789188000     0.939068000
C       2.234575000     3.939491000     1.276051000
C       2.271192000     5.020401000     0.402686000
C       1.599923000     4.953324000    -0.812474000
C       0.886012000     3.811528000    -1.152613000
Au     -1.421629000     1.513105000     1.976100000
Br     -2.169480000     2.205721000     4.167075000
H      -3.360631000    -0.802709000    -1.996545000
H      -5.081948000    -2.449729000    -1.331058000
H      -4.934605000    -3.570051000     0.871153000
H      -3.049022000    -3.055805000     2.390574000
H      -1.309069000    -1.440733000     1.702064000
H      -0.804463000    -0.892350000    -2.553710000
H       0.943601000     1.245127000    -2.602719000
H       1.502541000     1.944535000     1.609840000
H       2.751327000     3.987723000     2.223934000
H       2.817092000     5.914129000     0.670413000
H       1.616248000     5.795003000    -1.490481000
H       0.333361000     3.763183000    -2.080388000