31
energy: -2939822.836000 kJ/mol; low freq (cm^-1): 23.49, 29.3, 36.6
C      -1.100896000     1.181540000    -0.371773000
N      -1.151313000    -0.163957000    -0.566784000
C      -2.233142000    -1.010641000    -0.173691000
C      -3.537397000    -0.677163000    -0.516745000
C      -4.577003000    -1.504797000    -0.115688000
C      -4.314326000    -2.663006000     0.606779000
C      -3.004933000    -2.993041000     0.935898000
C      -1.959203000    -2.163810000     0.551407000
C       0.011068000    -0.625429000    -1.169971000
C       0.799949000     0.450373000    -1.367204000
N       0.105598000     1.550136000    -0.880947000
C       0.621003000     2.882728000    -0.887478000
C      -0.162215000     3.929052000    -1.358520000
C       0.349830000     5.219081000    -1.345090000
C       1.638149000     5.458917000    -0.881250000
C       2.417577000     4.403577000    -0.422390000
C       1.908810000     3.111234000    -0.418485000
Au     -2.474810000     2.352867000     0.531244000
I      -4.224456000     3.848598000     1.704064000
H      -3.732256000     0.222351000    -1.080057000
H      -5.593525000    -1.241104000    -0.370681000
H      -5.127875000    -3.303797000     0.916568000
H      -2.795864000    -3.886796000     1.506801000
H      -0.941395000    -2.395013000     0.832764000
H       0.147736000    -1.658349000    -1.427015000
H       1.762977000     0.544562000    -1.831261000
H      -1.160058000     3.733680000    -1.719864000
H      -0.262208000     6.036287000    -1.699291000
H       2.031758000     6.465603000    -0.872842000
H       3.416150000     4.585690000    -0.050734000
H       2.495672000     2.290067000    -0.031414000