31
energy: -8852089895.466570 kJ/mol; low freq (cm^-1) (cm^-1): 30.87, 34.08, 43.05
C      -0.699146000     0.381240000    -1.441850000
N      -1.109706000    -0.165536000    -0.264437000
C      -2.256232000    -1.001531000    -0.098797000
C      -3.488597000    -0.600587000    -0.599146000
C      -4.590328000    -1.428404000    -0.432756000
C      -4.465364000    -2.637982000     0.240880000
C      -3.229931000    -3.025549000     0.746108000
C      -2.118997000    -2.210265000     0.572724000
C      -0.244460000     0.166528000     0.769754000
C       0.718992000     0.944097000     0.236342000
N       0.425992000     1.074798000    -1.114624000
C       1.234314000     1.813385000    -2.032335000
C       0.648922000     2.738769000    -2.887308000
C       1.449400000     3.440815000    -3.777727000
C       2.823542000     3.231729000    -3.802849000
C       3.400700000     2.310869000    -2.936347000
C       2.606255000     1.593760000    -2.051191000
Au     -1.514585000     0.165090000    -3.248609000
Cl     -2.435570000    -0.089621000    -5.332299000
H      -3.577277000     0.341386000    -1.117982000
H      -5.547731000    -1.123486000    -0.830620000
H      -5.326868000    -3.278420000     0.367737000
H      -3.124387000    -3.969697000     1.261747000
H      -1.148083000    -2.519295000     0.933716000
H      -0.416993000    -0.151521000     1.780017000
H       1.556948000     1.440249000     0.687145000
H      -0.418206000     2.896456000    -2.859287000
H       0.995056000     4.152877000    -4.451908000
H       3.441883000     3.781209000    -4.498651000
H       4.467276000     2.136526000    -2.958874000
H       3.042080000     0.851543000    -1.397173000