22
energy: -2967845.755000 kJ/mol; low freq (cm^-1): 20.68, 30.81, 80.79
C      -0.362718000    -0.174184000    -2.528619000
C       1.152349000    -0.205097000    -2.732794000
C       1.864315000     0.793555000    -1.818546000
C       1.300550000     2.209433000    -2.009129000
C      -0.217012000     2.245920000    -1.799296000
C      -0.920288000     1.238073000    -2.714439000
P       2.205218000     3.393921000    -0.922543000
Au      4.454729000     3.339649000    -1.081945000
Br      6.848031000     3.147888000    -1.330097000
H      -0.597404000    -0.524310000    -1.518190000
H      -0.850389000    -0.864185000    -3.219189000
H       1.384159000     0.037855000    -3.774396000
H       1.542567000    -1.207780000    -2.551767000
H       2.937940000     0.789915000    -2.008549000
H       1.727336000     0.491508000    -0.774886000
H       1.531829000     2.539708000    -3.026869000
H      -0.602837000     3.251527000    -1.977549000
H      -0.438315000     2.001397000    -0.755546000
H      -1.994003000     1.253550000    -2.519648000
H      -0.785613000     1.546604000    -3.755730000
H       1.665570000     3.116912000     0.351354000
H       1.556986000     4.622141000    -1.168628000