22
energy: -8090808833.402650 kJ/mol; low freq (cm^-1) (cm^-1): 27.56, 40.42, 92.56
C      -0.388421000    -0.162706000    -2.551352000
C       1.126544000    -0.219721000    -2.752623000
C       1.856296000     0.758207000    -1.828784000
C       1.317349000     2.185616000    -2.004444000
C      -0.200753000     2.245897000    -1.800648000
C      -0.919140000     1.260820000    -2.727653000
P       2.221489000     3.342856000    -0.891412000
Au      4.452497000     3.471694000    -1.103807000
Cl      6.728240000     3.570943000    -1.344729000
H      -0.632574000    -0.515953000    -1.544164000
H      -0.886990000    -0.838438000    -3.248277000
H       1.364336000     0.026131000    -3.792162000
H       1.496874000    -1.231228000    -2.578524000
H       2.929968000     0.737064000    -2.018871000
H       1.712517000     0.447926000    -0.788439000
H       1.559047000     2.525598000    -3.016347000
H      -0.566362000     3.260386000    -1.970916000
H      -0.431605000     1.996202000    -0.760014000
H      -1.993203000     1.295327000    -2.537027000
H      -0.774088000     1.575977000    -3.765602000
H       1.745353000     2.968581000     0.382651000
H       1.509623000     4.550819000    -1.041858000