22
energy: -6957228746.253341 kJ/mol; low freq (cm^-1) (cm^-1): 16.02, 25.76, 74.35
C      -0.383641000    -0.180716000    -2.486671000
C       1.128805000    -0.233352000    -2.706591000
C       1.864363000     0.766792000    -1.812035000
C       1.315630000     2.187360000    -2.011544000
C      -0.199327000     2.244338000    -1.786289000
C      -0.925204000     1.236251000    -2.682786000
P       2.240445000     3.373815000    -0.943933000
Au      4.502840000     3.382896000    -1.148563000
I       7.068703000     3.265902000    -1.408169000
H      -0.612438000    -0.516388000    -1.469954000
H      -0.887274000    -0.872306000    -3.164057000
H       1.352086000    -0.006625000    -3.753660000
H       1.507523000    -1.238980000    -2.517380000
H       2.935727000     0.746945000    -2.014494000
H       1.735218000     0.477661000    -0.763696000
H       1.540180000     2.504483000    -3.034893000
H      -0.573740000     3.252967000    -1.971319000
H      -0.412700000     2.014129000    -0.737615000
H      -1.996549000     1.268156000    -2.477083000
H      -0.797512000     1.531646000    -3.728791000
H       1.743161000     3.075809000     0.342588000
H       1.563706000     4.592922000    -1.158218000