6
energy: -6473385687.807459 kJ/mol; low freq (cm^-1) (cm^-1): 92.65, 93.58, 335.59
P       0.019005000    -0.119577000     0.064405000
Au      2.158257000    -0.615725000    -0.386682000
Cl      4.337968000    -1.113764000    -0.846050000
H      -0.531258000     1.036708000    -0.521556000
H      -0.971409000    -1.055768000    -0.290120000
H      -0.341563000     0.105127000     1.407004000