6
energy: -6174657703.754832 kJ/mol; low freq (cm^-1) (cm^-1): 76.81, 77.34, 234.57
P       0.021641000    -0.129815000     0.076110000
Au      2.169846000    -0.648420000    -0.361404000
Br      4.458571000    -1.215150000    -0.839898000
H      -0.505756000     1.048702000    -0.486608000
H      -0.972768000    -1.043148000    -0.324279000
H      -0.364534000     0.060829000     1.417077000