6
energy: -2033825.055000 kJ/mol; low freq (cm^-1): 67.19, 67.49, 187.7
P       0.011093000    -0.135315000     0.081498000
Au      2.171845000    -0.688521000    -0.340020000
I       4.616231000    -1.325740000    -0.825154000
H      -0.497901000     1.047753000    -0.489040000
H      -0.995181000    -1.035375000    -0.320148000
H      -0.382087000     0.067199000     1.418866000