15
energy: -2343444.234000 kJ/mol; low freq (cm^-1): 36.5, 40.11, 82.08
C      -0.051351000    -0.055108000    -0.107396000
C       1.430016000    -0.019706000    -0.484559000
C       2.158828000    -1.303081000    -0.084854000
P       1.596586000     0.241291000    -2.310183000
Au      0.710689000    -1.357702000    -3.658339000
I      -0.310626000    -3.204787000    -5.143956000
H      -0.565202000     0.866461000    -0.382451000
H      -0.154623000    -0.188364000     0.970167000
H      -0.557383000    -0.885884000    -0.600821000
H       1.909110000     0.837761000    -0.007270000
H       1.720253000    -2.168663000    -0.582972000
H       2.076239000    -1.454694000     0.992058000
H       3.218624000    -1.266645000    -0.338738000
H       2.973958000     0.497483000    -2.470821000
H       1.104883000     1.550638000    -2.489864000