15
energy: -2661421.838000 kJ/mol; low freq (cm^-1): 43.16, 45.13, 87.24
C      -0.036981000    -0.011635000    -0.056756000
C       1.430351000    -0.025434000    -0.485925000
C       2.136867000    -1.322187000    -0.089178000
P       1.550159000     0.209199000    -2.318691000
Au      0.735312000    -1.415501000    -3.654963000
Br     -0.124768000    -3.157091000    -5.089209000
H      -0.530236000     0.924402000    -0.320438000
H      -0.105481000    -0.133467000     1.025078000
H      -0.586948000    -0.829679000    -0.523756000
H       1.948849000     0.825551000    -0.038561000
H       1.648806000    -2.183505000    -0.546815000
H       2.100017000    -1.446690000     0.993799000
H       3.184317000    -1.326557000    -0.392416000
H       2.914657000     0.511392000    -2.507291000
H       1.008080000     1.497202000    -2.507878000