15
energy: -2775201.783000 kJ/mol; low freq (cm^-1): 49.12, 54.1, 99.17
C      -0.042927000    -0.040140000    -0.076004000
C       1.429866000    -0.020163000    -0.486360000
C       2.168379000    -1.287166000    -0.053605000
P       1.562720000     0.181160000    -2.321350000
Au      0.675681000    -1.421369000    -3.620235000
Cl     -0.234969000    -3.057871000    -4.939550000
H      -0.562846000     0.870196000    -0.375771000
H      -0.122369000    -0.130514000     1.008027000
H      -0.559354000    -0.889334000    -0.525022000
H       1.918404000     0.854183000    -0.050661000
H       1.719331000    -2.171685000    -0.506844000
H       2.110661000    -1.395699000     1.030115000
H       3.222097000    -1.260871000    -0.332699000
H       2.937104000     0.432562000    -2.512740000
H       1.065223000     1.483712000    -2.532300000