12
energy: -7015442302.097287 kJ/mol; low freq (cm^-1) (cm^-1): 66.81, 70.94, 180.94
C      -0.129061000    -0.289025000    -0.019978000
P       1.553288000     0.077411000    -0.645050000
C       2.611161000    -1.240453000     0.061941000
Au      2.289920000     2.177891000    -0.341140000
Cl      3.045096000     4.310873000     0.020525000
H      -0.842896000     0.378720000    -0.498064000
H      -0.152586000    -0.106565000     1.052993000
H      -0.403295000    -1.323985000    -0.220427000
H       1.453732000    -0.324376000    -1.992846000
H       2.199756000    -2.227548000    -0.144251000
H       2.683749000    -1.092046000     1.137986000
H       3.610136000    -1.162896000    -0.362686000