12
energy: -5881860615.039166 kJ/mol; low freq (cm^-1) (cm^-1): 45.69, 47.97, 164.07
C      -0.144351000    -0.239540000     0.002259000
P       1.533843000     0.060459000    -0.670748000
C       2.574422000    -1.258776000     0.061814000
Au      2.311521000     2.182310000    -0.438278000
I       3.175190000     4.588977000    -0.078554000
H      -0.849437000     0.430432000    -0.485380000
H      -0.138153000    -0.015064000     1.067366000
H      -0.451549000    -1.272850000    -0.152116000
H       1.395943000    -0.387450000    -2.000986000
H       2.129017000    -2.240749000    -0.090744000
H       2.682315000    -1.067706000     1.127922000
H       3.562239000    -1.229046000    -0.393558000