22
energy: -3164804.888000 kJ/mol; low freq (cm^-1): 30.97, 35.3, 50.39
C       0.000360000    -0.090416000     0.264342000
P       1.640838000    -0.136636000    -0.551312000
C       2.500708000    -1.513121000     0.300564000
C       2.492224000     1.367902000     0.033491000
C       3.043364000     2.252986000    -0.892394000
C       3.696959000     3.401491000    -0.460618000
C       3.803799000     3.673284000     0.897158000
C       3.256280000     2.794411000     1.827159000
C       2.604180000     1.647463000     1.398020000
Au      1.543132000    -0.352717000    -2.802604000
Br      1.431345000    -0.604429000    -5.207181000
H      -0.563029000     0.756661000    -0.120815000
H       0.098465000    -0.000097000     1.345411000
H      -0.536922000    -1.006264000     0.023365000
H       1.994633000    -2.447237000     0.062336000
H       2.503845000    -1.365613000     1.379901000
H       3.525303000    -1.568425000    -0.060622000
H       2.958134000     2.038935000    -1.949150000
H       4.120727000     4.081374000    -1.186561000
H       4.311735000     4.566981000     1.232666000
H       3.337713000     3.003471000     2.884978000
H       2.183484000     0.973338000     2.132422000