22
energy: -8607924558.470753 kJ/mol; low freq (cm^-1) (cm^-1): 31.6, 46.75, 63.33
C       0.004594000    -0.083594000     0.246783000
P       1.647334000    -0.122526000    -0.564395000
C       2.506026000    -1.504225000     0.280157000
C       2.496456000     1.377000000     0.036604000
C       3.053121000     2.270772000    -0.877321000
C       3.706069000     3.413988000    -0.430376000
C       3.806637000     3.671786000     0.930501000
C       3.253257000     2.784290000     1.848613000
C       2.601917000     1.642660000     1.404356000
Au      1.550689000    -0.322717000    -2.807498000
Cl      1.435392000    -0.525666000    -5.092442000
H      -0.557601000     0.767145000    -0.132016000
H       0.099434000    -0.003612000     1.328904000
H      -0.532002000    -0.997093000    -0.004325000
H       2.001454000    -2.437060000     0.033917000
H       2.505913000    -1.363798000     1.360367000
H       3.531762000    -1.556127000    -0.078310000
H       2.972578000     2.068164000    -1.936659000
H       4.134323000     4.100737000    -1.147178000
H       4.314224000     4.561192000     1.277775000
H       3.329378000     2.982320000     2.908960000
H       2.176671000     0.961865000     2.129913000