12
energy: -2558260.337000 kJ/mol; low freq (cm^-1): 52.87, 56.39, 174.57
C      -0.132103000    -0.250602000    -0.011026000
P       1.548169000     0.066133000    -0.668477000
C       2.592766000    -1.252313000     0.057854000
Au      2.302159000     2.175377000    -0.392343000
Br      3.083617000     4.426303000     0.004441000
H      -0.840409000     0.408484000    -0.509122000
H      -0.139243000    -0.020441000     1.052968000
H      -0.425820000    -1.288372000    -0.163051000
H       1.423784000    -0.368000000    -2.004411000
H       2.147651000    -2.234796000    -0.093585000
H       2.705712000    -1.062154000     1.123713000
H       3.578716000    -1.221619000    -0.401961000