22
energy: -7474343370.856244 kJ/mol; low freq (cm^-1) (cm^-1): 29.19, 30.36, 43.82
C      -0.008045000    -0.082219000     0.265426000
P       1.640116000    -0.151177000    -0.533840000
C       2.484231000    -1.518509000     0.348217000
C       2.491854000     1.359680000     0.034010000
C       3.025283000     2.244408000    -0.902546000
C       3.676578000     3.399053000    -0.483739000
C       3.799799000     3.676566000     0.871530000
C       3.270098000     2.797929000     1.812118000
C       2.619232000     1.645548000     1.395975000
Au      1.570827000    -0.407200000    -2.797451000
I       1.498199000    -0.696270000    -5.367595000
H      -0.562846000     0.761647000    -0.138846000
H       0.081750000     0.026572000     1.345643000
H      -0.549076000    -0.998765000     0.035749000
H       1.975848000    -2.453228000     0.117291000
H       2.476942000    -1.357109000     1.425524000
H       3.512137000    -1.584148000    -0.001692000
H       2.928848000     2.025286000    -1.957348000
H       4.086446000     4.078756000    -1.217760000
H       4.306897000     4.574456000     1.196968000
H       3.364723000     3.011216000     2.867992000
H       2.212293000     0.971834000     2.138442000