15
energy: -2343515.618000 kJ/mol; low freq (cm^-1): 42.13, 43.35, 163.03
C       0.056494000     0.035746000     0.306015000
P       1.594701000    -0.193907000    -0.660587000
C       2.553035000    -1.401676000     0.326954000
C       2.501209000     1.378372000    -0.418194000
Au      1.263770000    -0.788361000    -2.831585000
I       0.876916000    -1.473153000    -5.296273000
H      -0.546557000     0.813440000    -0.158855000
H       0.283631000     0.315860000     1.334960000
H      -0.514020000    -0.891118000     0.297893000
H       2.036102000    -2.359451000     0.323318000
H       2.671111000    -1.054669000     1.353890000
H       3.533124000    -1.539071000    -0.125938000
H       1.953522000     2.187370000    -0.897866000
H       2.618173000     1.596711000     0.643760000
H       3.481787000     1.303907000    -0.884494000