15
energy: -2775274.238000 kJ/mol; low freq (cm^-1): 64.4, 65.03, 175.15
C       0.052424000     0.027952000     0.279095000
P       1.605127000    -0.175354000    -0.668570000
C       2.547711000    -1.409413000     0.299729000
C       2.506938000     1.389335000    -0.371537000
Au      1.317903000    -0.695499000    -2.838794000
Cl      1.023078000    -1.224594000    -5.053007000
H      -0.545345000     0.815688000    -0.175752000
H       0.263510000     0.283483000     1.317815000
H      -0.516021000    -0.899472000     0.240132000
H       2.029221000    -2.365814000     0.265078000
H       2.652421000    -1.088655000     1.336580000
H       3.533613000    -1.537276000    -0.143333000
H       1.965870000     2.210272000    -0.838518000
H       2.608586000     1.580425000     0.697116000
H       3.493964000     1.326921000    -0.826036000