15
energy: -6987752707.869658 kJ/mol; low freq (cm^-1) (cm^-1): 49.89, 51.7, 169.01
C       0.052887000     0.035526000     0.294009000
P       1.595085000    -0.177884000    -0.668714000
C       2.545991000    -1.406574000     0.298145000
C       2.501993000     1.387315000    -0.389304000
Au      1.289720000    -0.743454000    -2.835991000
Br      0.976608000    -1.381625000    -5.149527000
H      -0.544490000     0.827270000    -0.154491000
H       0.276296000     0.289965000     1.330569000
H      -0.521922000    -0.888198000     0.261250000
H       2.027700000    -2.363364000     0.270914000
H       2.659688000    -1.082088000     1.332924000
H       3.527981000    -1.535978000    -0.153277000
H       1.955370000     2.208526000    -0.849349000
H       2.617892000     1.579777000     0.677891000
H       3.483201000     1.323783000    -0.856050000