9
energy: -6744409842.305355 kJ/mol; low freq (cm^-1) (cm^-1): 70.75, 89.05, 183.96
P       0.022242000     0.086077000    -0.217424000
C       1.825394000    -0.141991000    -0.468483000
Au     -1.024910000     1.578167000    -1.526542000
Cl     -2.062759000     3.101857000    -2.881303000
H      -0.075000000     0.300340000     1.171874000
H      -0.469904000    -1.233270000    -0.268502000
H       2.227184000    -0.891388000     0.209898000
H       2.323547000     0.810994000    -0.302685000
H       1.998208000    -0.445784000    -1.498831000