9
energy: -6445680617.107991 kJ/mol; low freq (cm^-1) (cm^-1): 57.18, 73.08, 174.98
P       0.044173000     0.083597000    -0.253367000
C       1.855040000    -0.126077000    -0.466407000
Au     -1.050780000     1.542647000    -1.579895000
Br     -2.247045000     3.099144000    -2.982675000
H      -0.076445000     0.318121000     1.131047000
H      -0.425996000    -1.244591000    -0.288044000
H       2.252669000    -0.842491000     0.249429000
H       2.339082000     0.838525000    -0.328631000
H       2.053302000    -0.469876000    -1.479455000