9
energy: -5610829565.944137 kJ/mol; low freq (cm^-1) (cm^-1): 49.14, 64.17, 164.99
P       0.047459000     0.062465000    -0.242413000
C       1.861686000    -0.104843000    -0.469584000
Au     -1.066160000     1.495804000    -1.606466000
I      -2.316182000     3.125978000    -3.165804000
H      -0.069941000     0.307166000     1.140570000
H      -0.392144000    -1.276493000    -0.259846000
H       2.284967000    -0.813391000     0.238848000
H       2.321034000     0.871944000    -0.333717000
H       2.056282000    -0.438629000    -1.486587000