29
energy: -9929366418.446712 kJ/mol; low freq (cm^-1) (cm^-1): 21.11, 27.15, 40.26
C      -0.001063000    -0.027508000     0.257098000
P       1.617366000    -0.109319000    -0.596196000
C       2.493522000    -1.533242000     0.132574000
C       3.700145000    -1.922057000    -0.455092000
C       4.425673000    -2.980031000     0.070593000
C       3.948375000    -3.670023000     1.181189000
C       2.744200000    -3.296201000     1.762977000
C       2.018657000    -2.229496000     1.242812000
C       2.511950000     1.349554000     0.044499000
C       2.694154000     2.462642000    -0.775083000
C       3.333793000     3.594151000    -0.282193000
C       3.799271000     3.616692000     1.026597000
C       3.626684000     2.504735000     1.845734000
C       2.986376000     1.374639000     1.357619000
Au      1.466185000    -0.195781000    -2.843975000
Cl      1.313942000    -0.297204000    -5.133606000
H      -0.528658000     0.844053000    -0.124498000
H       0.121237000     0.074925000     1.333898000
H      -0.582838000    -0.917988000     0.026667000
H       4.062475000    -1.399645000    -1.330528000
H       5.357884000    -3.273662000    -0.391631000
H       4.510579000    -4.500467000     1.585383000
H       2.365357000    -3.834100000     2.621127000
H       1.083085000    -1.953076000     1.706477000
H       2.343350000     2.436588000    -1.797964000
H       3.473941000     4.452921000    -0.923904000
H       4.302124000     4.495032000     1.407419000
H       3.996144000     2.516810000     2.861990000
H       2.869525000     0.507536000     1.993594000