29
energy: -9630637781.503124 kJ/mol; low freq (cm^-1) (cm^-1): 20.78, 27.67, 31.38
C      -0.006277000    -0.047050000     0.344194000
P       1.583755000    -0.122051000    -0.561404000
C       2.487053000    -1.545394000     0.133319000
C       3.659221000    -1.947008000    -0.512450000
C       4.403622000    -3.006377000    -0.016617000
C       3.979181000    -3.684845000     1.122059000
C       2.809155000    -3.298153000     1.762204000
C       2.065033000    -2.230128000     1.271810000
C       2.492658000     1.341030000     0.049060000
C       2.601578000     2.469754000    -0.762693000
C       3.249343000     3.606360000    -0.293478000
C       3.797369000     3.618546000     0.983323000
C       3.698600000     2.491394000     1.793684000
C       3.049240000     1.356095000     1.329655000
Au      1.369050000    -0.197028000    -2.814328000
Br      1.150229000    -0.280170000    -5.223447000
H      -0.550202000     0.822035000    -0.019761000
H       0.151222000     0.056672000     1.416350000
H      -0.591506000    -0.940224000     0.133727000
H       3.979159000    -1.433939000    -1.409649000
H       5.308580000    -3.310151000    -0.524187000
H       4.555662000    -4.516556000     1.502907000
H       2.471160000    -3.826934000     2.642782000
H       1.156454000    -1.943553000     1.780797000
H       2.188605000     2.451344000    -1.762369000
H       3.332156000     4.476958000    -0.929226000
H       4.307317000     4.500823000     1.345115000
H       4.132567000     2.495542000     2.784205000
H       2.988873000     0.477735000     1.957863000