29
energy: -8795786903.905825 kJ/mol; low freq (cm^-1) (cm^-1): 21.62, 25.93, 27.29
C      -0.009770000    -0.051402000     0.285567000
P       1.603186000    -0.150792000    -0.576870000
C       2.488073000    -1.553663000     0.179251000
C       3.674260000    -1.974759000    -0.427558000
C       4.407281000    -3.017750000     0.117656000
C       3.957459000    -3.660459000     1.267327000
C       2.773048000    -3.255034000     1.868494000
C       2.040225000    -2.203383000     1.328581000
C       2.498060000     1.329170000     0.013085000
C       2.631029000     2.430891000    -0.831634000
C       3.269883000     3.580639000    -0.382795000
C       3.784980000     3.632637000     0.906612000
C       3.662228000     2.532402000     1.749982000
C       3.021731000     1.383970000     1.306255000
Au      1.437165000    -0.275225000    -2.847334000
I       1.247224000    -0.392843000    -5.424995000
H      -0.544342000     0.806243000    -0.117300000
H       0.119322000     0.083116000     1.358142000
H      -0.588851000    -0.950959000     0.085421000
H       4.014299000    -1.489528000    -1.332882000
H       5.323389000    -3.336747000    -0.359662000
H       4.525282000    -4.479232000     1.687208000
H       2.415444000    -3.756328000     2.757375000
H       1.120437000    -1.901799000     1.807907000
H       2.243983000     2.381139000    -1.840592000
H       3.371672000     4.430066000    -1.043855000
H       4.288083000     4.525028000     1.252840000
H       4.070682000     2.567610000     2.750651000
H       2.942866000     0.526398000     1.960553000