36
energy: -10117247745.871338 kJ/mol; low freq (cm^-1) (cm^-1): 22.11, 23.32, 26.45
C      -0.184709000    -0.057695000     0.399716000
C      -1.367573000     0.221408000     1.073681000
C      -1.965185000     1.470065000     0.947470000
C      -1.377123000     2.447309000     0.145483000
C      -0.182011000     2.166980000    -0.520194000
C       0.407207000     0.916746000    -0.397687000
P      -2.133068000     4.089796000    -0.096555000
C      -3.146533000     3.926310000    -1.604793000
C      -3.528440000     2.684926000    -2.111956000
C      -4.328000000     2.613359000    -3.246766000
C      -4.750742000     3.777351000    -3.877447000
C      -4.367960000     5.017579000    -3.376400000
C      -3.563651000     5.093282000    -2.248245000
C      -3.335083000     4.265059000     1.264639000
C      -4.670046000     3.885893000     1.128942000
C      -5.540499000     4.007132000     2.205726000
C      -5.083327000     4.504094000     3.420468000
C      -3.753179000     4.887827000     3.557880000
C      -2.882692000     4.775372000     2.483066000
Au     -0.615397000     5.789067000    -0.196385000
I       1.102002000     7.720834000    -0.308384000
H       0.280174000    -1.028680000     0.501665000
H      -1.825817000    -0.530866000     1.700942000
H      -2.882550000     1.683457000     1.476789000
H       0.288060000     2.931858000    -1.123993000
H       1.333118000     0.707048000    -0.915007000
H      -3.198769000     1.777073000    -1.627702000
H      -4.617186000     1.647804000    -3.638459000
H      -5.369821000     3.719163000    -4.762146000
H      -4.685987000     5.925172000    -3.870377000
H      -3.248281000     6.056527000    -1.869814000
H      -5.031453000     3.503518000     0.185224000
H      -6.575908000     3.716181000     2.093354000
H      -5.763212000     4.600551000     4.255803000
H      -3.396177000     5.285138000     4.497869000
H      -1.853319000     5.093117000     2.582560000