36
energy: -4171433.092000 kJ/mol; low freq (cm^-1): 22.87, 23.99, 30.67
C      -0.200165000    -0.078043000     0.389846000
C      -1.414453000     0.185658000     1.012450000
C      -1.999746000     1.440901000     0.897051000
C      -1.368963000     2.440227000     0.156580000
C      -0.143548000     2.174786000    -0.457356000
C       0.434601000     0.918061000    -0.344872000
P      -2.114589000     4.089531000    -0.073987000
C      -3.110792000     3.952259000    -1.597009000
C      -3.478006000     2.721332000    -2.138509000
C      -4.260115000     2.672030000    -3.286748000
C      -4.680555000     3.847963000    -3.896179000
C      -4.313209000     5.078143000    -3.360190000
C      -3.525965000     5.131574000    -2.218976000
C      -3.333161000     4.243641000     1.275457000
C      -4.672255000     3.893046000     1.108444000
C      -5.555613000     3.990493000     2.177275000
C      -5.106947000     4.434753000     3.415196000
C      -3.772424000     4.790164000     3.583927000
C      -2.889158000     4.701752000     2.517391000
Au     -0.607956000     5.779450000    -0.156571000
Br      1.001918000     7.584214000    -0.273915000
H       0.255163000    -1.054412000     0.483496000
H      -1.906590000    -0.583808000     1.591324000
H      -2.941102000     1.642282000     1.387605000
H       0.358225000     2.955905000    -1.012715000
H       1.384620000     0.720055000    -0.821439000
H      -3.149806000     1.804099000    -1.671346000
H      -4.536944000     1.714345000    -3.705638000
H      -5.285597000     3.807238000    -4.791497000
H      -4.629199000     5.995477000    -3.837175000
H      -3.221613000     6.087388000    -1.813793000
H      -5.026557000     3.550496000     0.146955000
H      -6.594036000     3.721582000     2.040419000
H      -5.796279000     4.512022000     4.244777000
H      -3.422014000     5.146178000     4.542771000
H      -1.855750000     4.996507000     2.642475000