36
energy: -11250825838.323278 kJ/mol; low freq (cm^-1) (cm^-1): 24.13, 26.03, 39.07
C      -0.123497000     0.015420000     0.355457000
C      -1.322982000     0.251357000     1.016490000
C      -1.946278000     1.489351000     0.911549000
C      -1.367682000     2.499562000     0.144298000
C      -0.156419000     2.262028000    -0.508756000
C       0.458806000     1.022427000    -0.407750000
P      -2.156641000     4.131589000    -0.068645000
C      -3.156167000     3.977975000    -1.587901000
C      -3.486851000     2.739625000    -2.136649000
C      -4.281375000     2.673032000    -3.275332000
C      -4.750574000     3.839086000    -3.868188000
C      -4.418908000     5.076699000    -3.325511000
C      -3.619637000     5.147695000    -2.193644000
C      -3.377985000     4.244748000     1.282692000
C      -4.694941000     3.813243000     1.126536000
C      -5.580292000     3.878581000     2.195807000
C      -5.156155000     4.372394000     3.423870000
C      -3.844740000     4.808729000     3.581736000
C      -2.959413000     4.751217000     2.514480000
Au     -0.682625000     5.838613000    -0.122906000
Cl      0.822054000     7.573873000    -0.195971000
H       0.361432000    -0.947303000     0.441077000
H      -1.773961000    -0.526389000     1.617379000
H      -2.876309000     1.668573000     1.431291000
H       0.305650000     3.052061000    -1.085595000
H       1.397242000     0.846377000    -0.914942000
H      -3.121379000     1.830504000    -1.681500000
H      -4.530555000     1.710025000    -3.699433000
H      -5.366302000     3.785188000    -4.755476000
H      -4.773553000     5.986291000    -3.790041000
H      -3.344923000     6.109874000    -1.782360000
H      -5.030841000     3.433069000     0.172560000
H      -6.601353000     3.546489000     2.067280000
H      -5.847433000     4.425125000     4.253761000
H      -3.514099000     5.203492000     4.532394000
H      -1.944723000     5.107888000     2.630644000