18
energy: -2878400.240000 kJ/mol; low freq (cm^-1): 42.81, 53.04, 101.6
C      -0.018250000    -0.011177000    -0.113245000
C       1.461183000     0.018628000    -0.516271000
C       2.152088000    -1.288226000    -0.107555000
C       2.168877000     1.224684000     0.108142000
P       1.536805000     0.138357000    -2.372806000
Au      0.553287000    -1.503667000    -3.544200000
Cl     -0.470801000    -3.212034000    -4.672883000
H      -0.536771000     0.899960000    -0.415191000
H      -0.095281000    -0.095041000     0.972264000
H      -0.535017000    -0.861306000    -0.557529000
H       1.668001000    -2.153361000    -0.559629000
H       2.102512000    -1.398740000     0.977166000
H       3.204201000    -1.295268000    -0.395919000
H       1.693707000     2.163491000    -0.178367000
H       3.219509000     1.269929000    -0.180556000
H       2.125992000     1.148634000     1.196552000
H       2.910732000     0.343437000    -2.616892000
H       1.072225000     1.446702000    -2.621081000