18
energy: -6423659779.921977 kJ/mol; low freq (cm^-1) (cm^-1): 32.52, 33.66, 82.2
C      -0.027288000    -0.014212000    -0.120422000
C       1.454146000     0.022964000    -0.514571000
C       2.149270000    -1.280530000    -0.103302000
C       2.152324000     1.232361000     0.114969000
P       1.542712000     0.148838000    -2.370827000
Au      0.611203000    -1.501816000    -3.620823000
I      -0.434161000    -3.385154000    -5.044338000
H      -0.547817000     0.895527000    -0.422999000
H      -0.109879000    -0.100448000     0.964528000
H      -0.538365000    -0.865762000    -0.568736000
H       1.669159000    -2.148037000    -0.555134000
H       2.098811000    -1.389707000     0.981524000
H       3.201776000    -1.284030000    -0.390142000
H       1.675567000     2.168935000    -0.176035000
H       3.204519000     1.281725000    -0.167039000
H       2.102292000     1.157103000     1.203159000
H       2.915415000     0.381427000    -2.598477000
H       1.059316000     1.451816000    -2.613334000