18
energy: -7258509700.254101 kJ/mol; low freq (cm^-1) (cm^-1): 36.89, 40.96, 90.4
C      -0.031892000     0.003866000    -0.146225000
C       1.452064000     0.032279000    -0.533442000
C       2.125814000    -1.293681000    -0.158173000
C       2.164558000     1.211374000     0.134447000
P       1.543214000     0.198894000    -2.386206000
Au      0.650039000    -1.512308000    -3.550121000
Br     -0.333609000    -3.430651000    -4.629078000
H      -0.535611000     0.934447000    -0.412130000
H      -0.120634000    -0.126954000     0.933778000
H      -0.555516000    -0.819660000    -0.631306000
H       1.628935000    -2.139695000    -0.632005000
H       2.076489000    -1.430815000     0.923478000
H       3.177114000    -1.308853000    -0.449621000
H       1.705483000     2.164182000    -0.131834000
H       3.219854000     1.250645000    -0.137701000
H       2.104669000     1.105063000     1.219688000
H       2.907173000     0.475581000    -2.614165000
H       1.016857000     1.487287000    -2.614384000